/*--------------------------------*- C++ -*----------------------------------*\
  =========                 |
  \\      /  F ield         | OpenFOAM: The Open Source CFD Toolbox
   \\    /   O peration     | Website:  https://openfoam.org
    \\  /    A nd           | Version:  6
     \\/     M anipulation  |
\*---------------------------------------------------------------------------*/
FoamFile
{
    version     2.0;
    format      ascii;
    class       volScalarField;
    location    "0.02";
    object      O2;
}
// * * * * * * * * * * * * * * * * * * * * * * * * * * * * * * * * * * * * * //

dimensions      [0 0 0 0 0 0 0];

internalField   nonuniform List<scalar> 
297
(
0
0
0
0
0
0
0
0
0
0
0
0
0
0
0
0
0
0
0
0
0
0
0
0
0
0
0
0.0376685
0.0841275
0.0401143
0.0750055
0.100672
0.0763212
0.0375945
0.0842265
0.0403518
0
0.013157
0
0.0234707
0.0659395
0.0251047
0
0.0131657
0
0
0.0115545
0
0.0170962
0.0147031
0.0180444
0
0.0115468
0
0.00241019
0.00696306
0.0023195
0
0.00102092
0
0.00241589
0.00695832
0.00231154
0
4.45504e-08
0
0
0
0
0
4.41222e-08
0
3.15441e-15
2.02708e-13
3.70058e-14
0
1.63587e-12
0
0
1.9795e-13
2.31702e-15
0
0.0115489
0
0
0.00104781
0
0
0.0115419
0
0
0.0115057
0
0
0.00101927
0
0
0.0114989
0
0
0.0114309
0
0
0.00102017
0
0
0.0114244
0
5.26134e-17
3.86901e-16
7.35719e-17
9.8815e-17
3.70889e-15
6.83469e-17
9.65739e-17
4.384e-16
1.08718e-16
2.89797e-16
3.62715e-16
3.49915e-16
2.76781e-16
8.32984e-15
2.1933e-16
4.2558e-16
5.40698e-16
4.69642e-16
1.95542e-15
8.58269e-15
2.01994e-15
6.73368e-16
1.22878e-14
5.65249e-16
2.97081e-15
1.27922e-14
2.85615e-15
1.99419e-21
3.15891e-25
5.74737e-29
8.24099e-22
7.59543e-26
2.29384e-29
2.22224e-21
4.38213e-25
1.03121e-28
1.29143e-20
5.63477e-24
4.7124e-28
2.6121e-21
1.24713e-24
1.62169e-28
1.86961e-20
8.11054e-24
5.90998e-28
3.85104e-19
2.29015e-23
6.52118e-28
3.58272e-20
9.83367e-25
6.25001e-28
5.52109e-19
3.30569e-23
9.17219e-28
1.93376e-29
4.51303e-26
1.07114e-21
1.3525e-29
2.2634e-26
5.86454e-22
8.39982e-29
1.04182e-25
1.88279e-21
1.12169e-28
1.33458e-24
4.9955e-21
1.04356e-28
5.21735e-25
2.59374e-21
2.7912e-28
3.54905e-24
1.45827e-20
1.81848e-28
4.9797e-24
9.1391e-20
5.2339e-28
5.41126e-25
2.11246e-20
4.0477e-28
1.38921e-23
1.3588e-19
1.26466e-33
4.2658e-33
1.22995e-32
1.81507e-30
8.44095e-30
8.8462e-30
2.22901e-32
4.96195e-32
8.63593e-32
2.85544e-33
1.02562e-32
3.25082e-32
1.73827e-30
5.53797e-29
9.86884e-29
2.24321e-32
5.2737e-32
1.10519e-31
3.05552e-33
1.3755e-32
3.93339e-32
1.59981e-30
2.70656e-28
3.64266e-28
2.40619e-32
4.85859e-32
1.16116e-31
3.71213e-33
2.19156e-32
3.79072e-32
2.3182e-30
7.0432e-28
1.47941e-27
2.20137e-32
6.01856e-32
1.05046e-31
3.16125e-33
1.79931e-32
3.29042e-32
2.93253e-28
1.35995e-27
2.51543e-27
3.03752e-33
2.67553e-32
2.87225e-32
6.97436e-34
4.62876e-33
1.16604e-32
1.82041e-28
8.92597e-28
1.6174e-27
1.24313e-33
6.42159e-33
1.16627e-32
1.64439e-32
6.80987e-33
4.20193e-33
1.46738e-29
1.33504e-29
2.45422e-30
1.2287e-31
6.43722e-32
4.07751e-32
5.47405e-32
1.6772e-32
5.46152e-33
1.37291e-28
5.8897e-29
2.33379e-30
1.65695e-31
7.10996e-32
2.78993e-32
5.87392e-32
2.23372e-32
5.77899e-33
5.87259e-28
3.31951e-28
2.15576e-30
1.73005e-31
7.48439e-32
2.49889e-32
7.18233e-32
2.97028e-32
7.07828e-33
2.08984e-27
9.88853e-28
3.11762e-30
1.48727e-31
9.42629e-32
2.31394e-32
6.87225e-32
2.68225e-32
2.88545e-33
3.58315e-27
2.0233e-27
3.25605e-28
4.06629e-32
2.26121e-32
3.73177e-33
1.66531e-32
9.30372e-33
8.91322e-34
2.31593e-27
1.31082e-27
2.2383e-28
1.6648e-32
9.32649e-33
1.58078e-33
)
;

boundaryField
{
    fuel
    {
        type            fixedValue;
        value           uniform 0;
    }
    primary_air
    {
        type            fixedValue;
        value           uniform 0.23;
    }
    Secondary_air_RHS
    {
        type            fixedValue;
        value           uniform 0.23;
    }
    Secondary_air_LHS
    {
        type            fixedValue;
        value           uniform 0.23;
    }
    outlet
    {
        type            inletOutlet;
        inletValue      uniform 0;
        value           nonuniform List<scalar> 
18
(
0
2.31593e-27
0
0
1.31082e-27
0
0
2.2383e-28
0
0
1.82041e-28
0
0
8.92597e-28
0
0
1.6174e-27
0
)
;
    }
    stove_body
    {
        type            fixedValue;
        value           uniform 0;
    }
    frontAndBack
    {
        type            empty;
    }
}


// ************************************************************************* //
