/*--------------------------------*- C++ -*----------------------------------*\
  =========                 |
  \\      /  F ield         | OpenFOAM: The Open Source CFD Toolbox
   \\    /   O peration     | Website:  https://openfoam.org
    \\  /    A nd           | Version:  6
     \\/     M anipulation  |
\*---------------------------------------------------------------------------*/
FoamFile
{
    version     2.0;
    format      ascii;
    class       volScalarField;
    location    "0.02";
    object      p;
}
// * * * * * * * * * * * * * * * * * * * * * * * * * * * * * * * * * * * * * //

dimensions      [1 -1 -2 0 0 0 0];

internalField   nonuniform List<scalar> 
297
(
92149.5
92148.9
92148.8
153498
153498
153498
92149.3
92149.7
92150.1
92149.1
92148.5
92148.3
153499
153498
153499
92148.8
92149.2
92149.7
92148.7
92148.1
92147.9
153500
153499
153500
92148.4
92148.8
92149.3
96682.1
96685.1
96671.5
160580
160617
160587
96679.5
96684.8
96673.3
96906.1
96461.2
96863
160460
160903
160444
96922.9
96463.7
96853.4
93594.9
93526.5
93694.4
150437
155942
150596
93605.4
93527.5
93689
89983.4
93330.2
89820.4
153569
153505
153549
89975.4
93327.5
89825.9
95724
96178.4
95595.4
159752
159137
159715
95717.4
96176.3
95598.3
95703
96201.7
95659.9
159234
159899
159473
95687.1
96201.6
95670.5
70488.7
91381.7
70658.6
115175
148534
115419
70399.1
91375.7
70745.6
68950.9
91231.6
69110.8
111147
147945
111381
68867
91225.3
69192.9
71164.9
91372.8
71299.5
113960
148291
114145
71103.5
91366.7
71360.3
96491.3
96644.3
96464.2
160213
160463
160232
96484.2
96645.7
96466.1
96615.7
96635.8
96580.5
160521
160581
160505
96611.5
96635
96579.9
96622.1
96624.1
96589.2
160667
160641
160634
96618.4
96622.3
96587.8
96746.1
96977.2
97536.9
160450
160569
160822
96743.9
96971.4
97519.7
96620
96694.6
97076.8
160499
160505
160577
96619.3
96693.9
97067.8
96501.9
96366.4
96287.2
160620
160531
160418
96504
96371.2
96292.7
97539.5
97000.7
96775.4
160874
160621
160490
97544.5
97000.2
96772.2
97095.4
96728.9
96654.6
160634
160562
160547
97097.1
96726.2
96651.7
96335.5
96411.9
96541.6
160478
160591
160674
96329.7
96407
96537.4
98719.7
98502.1
98109.8
161857
161675
161307
98721.7
98505.2
98116.2
98420.5
98162.7
97736.9
161505
161318
160969
98422
98167.7
97744.8
98042.7
97773.2
97267.3
161057
160835
160576
98046.1
97778.3
97272.1
96182.3
96092.2
95927.8
158971
158860
158754
96187.6
96097.8
95934
90314
90351.4
90403.8
149322
149320
149318
90315
90352.3
90404.4
82931.1
82932.2
82934.7
132888
132885
132876
82925.6
82926.7
82928.9
98127.6
98532.1
98760.3
161266
161645
161832
98098.8
98493.2
98711
97746.5
98182.8
98449.3
160920
161279
161473
97721.4
98151.6
98409.8
97260.9
97782.9
98062
160519
160786
161015
97243
97756.3
98028
95898
96063
96154.3
158669
158776
158890
95886.2
96052.4
96143.6
90315.7
90263.8
90225.4
149163
149166
149167
90316.7
90263.8
90226
82795.6
82793.5
82791.1
132679
132689
132692
82816.7
82814.3
82813.4
)
;

boundaryField
{
    fuel
    {
        type            zeroGradient;
    }
    primary_air
    {
        type            zeroGradient;
    }
    Secondary_air_RHS
    {
        type            zeroGradient;
    }
    Secondary_air_LHS
    {
        type            zeroGradient;
    }
    outlet
    {
        type            totalPressure;
        rho             rho;
        psi             none;
        gamma           1;
        p0              uniform 100000;
        value           nonuniform List<scalar> 
18
(
86496.8
100000
86487.2
86423.5
100000
86439.7
86440.4
100000
86424.2
86519.9
100000
86520.8
86531.9
100000
86530.1
86578.5
100000
86584
)
;
    }
    stove_body
    {
        type            zeroGradient;
    }
    frontAndBack
    {
        type            empty;
    }
}


// ************************************************************************* //
