/*--------------------------------*- C++ -*----------------------------------*\
  =========                 |
  \\      /  F ield         | OpenFOAM: The Open Source CFD Toolbox
   \\    /   O peration     | Website:  https://openfoam.org
    \\  /    A nd           | Version:  6
     \\/     M anipulation  |
\*---------------------------------------------------------------------------*/
FoamFile
{
    version     2.0;
    format      ascii;
    class       surfaceScalarField;
    location    "0.02";
    object      phi;
}
// * * * * * * * * * * * * * * * * * * * * * * * * * * * * * * * * * * * * * //

dimensions      [1 0 -1 0 0 0 0];

internalField   nonuniform List<scalar> 
675
(
1.61992e-06
-0.000126568
0.000251111
-7.84954e-07
-0.000128525
0.000257249
-0.000126776
0.000252552
4.86552e-06
0.000126843
-0.000101877
-2.50566e-06
0.000127286
-9.18237e-05
0.000127281
-0.000101966
6.50555e-07
0.000250758
1.1813e-06
0.00025144
0.000252322
2.19197e-06
2.49872e-05
0.000247786
-3.11767e-06
2.55076e-05
0.000246341
2.47073e-05
0.000249241
3.12597e-06
-2.44533e-05
-8.88066e-05
9.21793e-07
-2.36659e-05
-7.523e-05
-2.40972e-05
-8.76086e-05
3.46195e-07
0.000248025
-3.49169e-07
0.000250392
0.000249383
1.57592e-07
0.000141841
-1.95872e-06
0.000141675
0.000142004
-3.80992e-06
-0.000141315
4.50795e-06
-0.000141327
-0.000141396
-9.745e-07
5.22382e-07
0.00859904
0.0118142
-0.0168898
-0.00659136
0.0119483
0.00680411
0.0118085
-0.0148815
0.00647275
-0.0117071
0.0225299
-0.00490625
-0.0119373
0.0407517
-0.0118947
0.0242789
0.00868426
-0.0168698
-0.00643839
0.00674765
-0.0148146
0.0367608
0.0266704
-0.0800733
-0.0355812
-0.0134858
0.0928585
0.026526
-0.0767341
0.017018
-0.0270003
0.0593065
-0.0164622
0.0134858
0.0475448
-0.0262755
0.0607393
0.0361034
-0.0797265
-0.0360816
0.0926437
-0.0769174
0.00583133
0.063971
-0.149624
-0.00663874
0.00249608
0.103007
0.0642067
-0.147339
-0.113895
-0.0639894
0.301134
0.113688
-0.00248632
-0.174432
-0.0642246
0.302814
0.00638862
-0.149854
-0.00623333
0.102951
-0.147134
-0.0638381
-0.0692503
-0.0472574
0.180517
0.060766
0.0152889
-0.0537022
-0.0860728
-0.0719489
-0.0455117
0.178426
0.00277084
0.069347
0.103007
-0.244708
0.00124337
-0.0152541
-0.172913
0.204156
0.0718825
0.103959
-0.246862
-0.0640361
-0.0470412
0.180598
0.0605783
-0.0537355
-0.0860163
-0.0457078
0.178364
0.00930541
-0.0310856
-0.0254192
-0.0183687
0.0130619
-0.0389763
-0.0365814
-0.0272212
0.0536798
0.0312033
-0.0131814
-0.0464026
-0.0130457
-0.0468908
0.0365076
-0.0157574
0.00952646
-0.0253005
-0.0181146
-0.039028
-0.0272378
-0.00125031
0.000258787
-0.0243954
-0.0173268
0.00165899
-0.0245157
-0.0199956
-0.0245287
0.0264306
0.000209313
-0.0398563
0.0204877
-0.00156142
-0.0380481
0.019366
-0.0349484
-0.000588807
-0.024469
-0.0166209
-0.0245173
-0.0244621
-0.00224754
-0.0014227
-0.159853
0.00222888
0.000398181
0.0981526
-0.00141558
-0.157628
-0.00689747
0.00143233
0.282448
0.00706788
-0.000395278
-0.187307
0.00140603
0.284284
-0.00226635
-0.160036
0.00220681
0.0981035
-0.157472
-0.00211377
-0.000506582
-0.170828
0.00208019
-0.000567924
0.0945472
-0.000496033
-0.16868
-0.00317951
0.000513235
0.262674
0.00334684
0.000567982
-0.19468
0.00048951
0.264666
-0.00213396
-0.170968
0.0020608
0.0944973
-0.168566
-0.00479874
0.00045638
0.00478256
-0.00108663
0.000469278
-0.00361214
-0.0004537
0.00377797
0.00108689
-0.000472395
-0.00484337
0.00474505
0.00863641
-0.00203653
-0.0107105
-0.0202812
-0.00862313
-0.00131435
-0.00593456
-0.00230791
-0.0103027
-0.0205447
0.00863001
0.00207831
-0.0264558
-0.0262221
-0.0111722
0.00141197
-0.0210464
0.00226876
-0.0246171
-0.0261588
0.00885469
-0.0109117
-0.0203304
-0.00834461
-0.00590221
-0.0101746
-0.0203613
0.00442338
0.000235693
-0.0015486
-0.0138194
-0.00606451
0.00165568
0.00290353
-0.000112377
-0.00214171
-0.0141121
0.00492841
-0.00015782
-0.0121002
-0.0189633
-0.00491235
-0.00162552
-0.00801048
9.08758e-05
-0.0107026
-0.0191028
0.00451563
-0.00172285
-0.0138599
-0.00593311
0.00292604
-0.00201384
-0.0140012
-0.000241685
0.00163724
-0.00294125
0.000367995
0.00229204
0.00136107
-0.00313531
0.00111365
-0.00155295
-0.0100948
-0.00241576
-0.00228018
-0.00140597
-0.0104209
-0.00027573
-0.00299764
0.000365197
-0.00305235
-0.0186802
-0.000561815
-0.00130378
-0.0192673
0.00220372
-0.00161856
0.00266885
-0.00675595
-0.0151818
-0.0252382
0.000551993
-0.00206878
-0.0222367
-0.00219525
0.00136219
-0.00265036
0.00305482
-0.0200081
-0.0185036
-0.00130598
-0.0190606
-0.00163919
-0.00669795
-0.0150136
-0.0141271
-0.000619449
-0.000669537
-0.01424
0.00150667
-0.00301276
0.000209892
-0.00744774
-0.0137589
-0.0212035
0.00061015
-0.00123166
-0.0175194
-0.00150528
0.000655568
-0.000232123
0.003846
-0.0179034
-0.0140269
-0.000669987
-0.0141393
-0.00303218
-0.00738586
-0.0136837
-0.00397213
0.000167103
-0.00658878
-0.000396284
-0.0020061
-0.0120304
-0.0113412
-0.000176005
-0.0115075
0.000391597
0.00199488
-0.0116972
-0.00389799
-0.00653858
-0.0119293
0.0189341
0.00262973
-0.00663175
-0.0149329
0.0183971
0.00219151
-0.0016555
-0.000532806
-0.00135135
0.0220211
-0.00263652
0.00298537
-0.0197761
0.0250231
-0.00218958
0.00134414
0.00054148
-0.00230699
0.0189796
-0.00668739
-0.0149299
0.0184228
-0.00163394
-0.00136639
0.0140214
0.000235997
-0.00729639
-0.0135931
0.013922
0.00151072
-0.00306694
-0.000567563
-0.000680813
0.0173385
-0.000203965
0.00376373
-0.0177119
0.0210373
-0.00150251
0.000623759
0.000591015
-0.00142557
0.0140674
-0.00736314
-0.0135963
0.0139641
-0.00303356
-0.000671034
0.00651342
-0.00198141
-0.0118284
0.00381543
-0.000368966
0.000193909
0.0113317
0.00199314
-0.0115769
0.0111813
0.000371993
-0.000176552
0.00650672
-0.0118766
0.00384491
0.00650496
0.00216668
-0.00867145
0.0100464
0.00192412
-0.00546572
0.00225008
-0.00713686
0.00931368
-0.00216964
-0.00500417
0.0148944
-0.00192561
-0.0017579
-0.00225219
-0.000406523
0.00648756
-0.00865709
0.00999466
-0.00543328
-0.00718779
0.00484557
0.00189246
-0.0154092
0.00904746
0.00176024
-0.0114276
0.0012039
-0.0128864
0.0069809
-0.00189421
-0.00822477
0.0130486
-0.00174948
-0.00434245
-0.00114532
-0.00274684
0.00484524
-0.0153962
0.00901463
-0.0113517
-0.0129147
0.00593148
0.00402994
-0.0253704
0.00643721
0.00200738
-0.0139406
0.000906635
-0.0191841
0.00755965
-0.00403363
-0.00774684
0.0120702
-0.00202272
-0.00484909
-0.000886677
-0.000485522
0.00589431
-0.0253233
0.00639662
-0.0138762
-0.019281
-0.00713122
0.0129811
-0.0312191
-0.00112068
0.0109727
-0.0309225
0.0107917
-0.0310943
0.00170093
-0.0130133
0.0164173
-0.00241353
-0.011004
0.0211155
-0.0108248
0.0185894
-0.007097
-0.031238
-0.00110615
-0.0308699
-0.0312096
0.000223922
0.00569327
-0.0371084
0.000770833
0.00575672
-0.0371983
0.00639499
-0.0366908
-0.00276246
-0.00569714
0.0305072
-0.00167842
-0.00575279
0.031468
-0.00638718
0.029624
0.000222982
-0.0371315
0.000814685
-0.0371865
-0.036752
-0.000100822
0.0178986
-0.000266516
0.017854
0.0178524
-0.000702144
-0.0178742
0.000178898
-0.0178367
-0.017815
-0.000100683
-0.000233887
-0.0101873
0.00228435
-0.0072797
-0.0066515
0.00194505
-0.00548186
0.0021995
-0.0088522
-0.0150985
-0.00225316
-0.00039976
-0.00944672
-0.00192109
-0.00181271
-0.00218204
-0.00509222
-0.0100609
-0.00720588
-0.00650914
-0.00547294
-0.00869112
-0.00912034
0.00114044
-0.013059
-0.00496767
0.00175312
-0.0113883
0.0019195
-0.0157405
-0.0132231
-0.00119298
-0.00277291
-0.00707995
-0.00176714
-0.00446248
-0.00190541
-0.00837424
-0.00909564
-0.0129867
-0.00486609
-0.0114693
-0.0154622
-0.00643963
0.000877556
-0.0195273
-0.00599101
0.0020381
-0.0138752
0.00410134
-0.0258334
-0.0121954
-0.000900204
-0.000521999
-0.00766305
-0.00203656
-0.00494681
-0.00404164
-0.00792083
-0.00646361
-0.0193521
-0.00592844
-0.0140406
-0.0254319
0.00122299
0.0108991
-0.0316447
0.00716048
0.0110692
-0.0308787
0.0131471
-0.0318189
0.002477
-0.0108582
0.0186341
-0.00172591
-0.0110765
0.0212789
-0.0130739
0.016445
0.00110247
-0.031308
0.0071174
-0.0311282
-0.0313851
-0.000914428
0.00637361
-0.037069
-0.000139478
0.00572064
-0.0373434
0.00563883
-0.0375497
0.00171762
-0.0064109
0.0296352
0.00293028
-0.00577704
0.031494
-0.00571929
0.0306739
-0.000768881
-0.0369178
-0.00023225
-0.03741
-0.0373054
0.000199563
0.0176865
0.000196343
0.0177358
0.0176942
-0.000217441
-0.0178014
0.000718323
-0.0178051
-0.0178519
0.000250904
8.39903e-05
)
;

boundaryField
{
    fuel
    {
        type            calculated;
        value           nonuniform List<scalar> 
36
(
9.75801e-05
0.000162547
9.75798e-05
9.75795e-05
0.000162547
9.75803e-05
9.75794e-05
0.000162547
9.75808e-05
-9.75811e-05
-0.000162546
-9.75808e-05
-9.75804e-05
-0.000162545
-9.75812e-05
-9.75803e-05
-0.000162546
-9.75817e-05
0
0
0
0
0
0
0
0
0
0
0
0
0
0
0
0
0
0
)
;
    }
    primary_air
    {
        type            calculated;
        value           nonuniform List<scalar> 9(-0.00317929 -0.00528051 -0.0031792 -0.00317939 -0.00528171 -0.00317937 -0.00317894 -0.00528072 -0.003179);
    }
    Secondary_air_RHS
    {
        type            calculated;
        value           nonuniform List<scalar> 9(0.0139412 0.0227725 0.0139584 0.0136358 0.0219759 0.013652 0.0140676 0.0225212 0.0140796);
    }
    Secondary_air_LHS
    {
        type            calculated;
        value           nonuniform List<scalar> 9(0.0139077 0.0227244 0.01389 0.0136043 0.0219298 0.0135877 0.0140411 0.0224847 0.014029);
    }
    outlet
    {
        type            calculated;
        value           nonuniform List<scalar> 
18
(
-0.054918
0.065326
-0.0549327
-0.055039
0.0660831
-0.0550109
-0.0550103
0.0669257
-0.0550357
-0.0548711
0.0669638
-0.0548699
-0.0548517
0.0662566
-0.0548551
-0.0547748
0.0654504
-0.0547659
)
;
    }
    stove_body
    {
        type            calculated;
        value           uniform 0;
    }
    frontAndBack
    {
        type            empty;
        value           nonuniform 0();
    }
}


// ************************************************************************* //
