/*--------------------------------*- C++ -*----------------------------------*\
  =========                 |
  \\      /  F ield         | OpenFOAM: The Open Source CFD Toolbox
   \\    /   O peration     | Website:  https://openfoam.org
    \\  /    A nd           | Version:  6
     \\/     M anipulation  |
\*---------------------------------------------------------------------------*/
FoamFile
{
    version     2.0;
    format      ascii;
    class       volScalarField;
    location    "0.02";
    object      Qdot;
}
// * * * * * * * * * * * * * * * * * * * * * * * * * * * * * * * * * * * * * //

dimensions      [1 -1 -3 0 0 0 0];

internalField   nonuniform List<scalar> 
297
(
0
0
6.79012e-05
2.69824e-05
2.69824e-05
0
4.09181e-05
2.69828e-05
0
3.39508e-05
3.39508e-05
2.04592e-05
2.55583e-06
2.55583e-06
2.5574e-06
1.34916e-05
0
-7.87971e-10
-1.57594e-09
-1.57594e-09
0
-1.57594e-09
-1.57594e-09
0
0
0
0
-1.54699e-09
-1.57594e-09
-1.54699e-09
-1.57594e-09
-1.57594e-09
0
2.89571e-11
0
0
0
-1.5687e-09
0
2.89571e-11
0
-3.12293e-09
0
-1.57594e-09
-1.57594e-09
-1.57594e-09
7.23927e-12
0
-1.57594e-09
0
-1.56146e-09
0
7.23927e-12
0
-1.57594e-09
0
0
-1.57594e-09
-1.57504e-09
0
-1.57594e-09
0
0
0
0
-1.57594e-09
-3.15189e-09
-3.15189e-09
-3.15189e-09
0
2.76156e-17
0
-1.57594e-09
1.05345e-22
2.63363e-23
0
-3.15189e-09
0
-1.57594e-09
-1.57594e-09
1.64602e-24
-7.87971e-10
-1.5687e-09
-7.87971e-10
-1.57594e-09
0
0
0
-1.5687e-09
0
0
0
-7.87971e-10
0
-1.57594e-09
0
0
7.23927e-12
-7.87971e-10
0
0
-7.87971e-10
-1.57594e-09
0
-1.57594e-09
-7.87971e-10
0
0
-1.57594e-09
-1.57594e-09
-1.57594e-09
1.02876e-25
3.29204e-24
-3.15189e-09
5.14381e-26
-1.57594e-09
-1.57594e-09
0
-1.57594e-09
2.05753e-25
0
-3.15189e-09
2.05753e-25
0
-1.57594e-09
0
1.64602e-24
-1.57594e-09
0
-3.15189e-09
0
0
-1.57594e-09
6.58408e-24
-1.57594e-09
0
-1.57594e-09
-1.57594e-09
7.84884e-31
-3.15189e-09
0
1.56977e-30
3.83244e-34
-1.57594e-09
0
0
-1.57594e-09
0
0
0
1.25581e-29
-1.57594e-09
-1.57594e-09
-1.57594e-09
0
0
-3.15189e-09
0
-3.15189e-09
-1.57594e-09
2.45276e-32
7.48523e-37
1.16957e-38
0
-1.57594e-09
1.16957e-38
2.39527e-35
0
4.67827e-38
9.5811e-35
-1.57594e-09
0
7.66488e-34
-1.57594e-09
9.35654e-38
-3.15189e-09
-3.15189e-09
1.87131e-37
3.06595e-33
-1.57594e-09
9.35654e-38
0
5.02325e-29
-3.15189e-09
7.66488e-34
-3.15189e-09
-1.57594e-09
-1.57594e-09
1.00465e-28
0
2.85539e-42
-1.57594e-09
0
-3.15189e-09
1.16957e-38
1.14216e-41
-1.57594e-09
0
-1.57594e-09
-1.57594e-09
0
1.46196e-39
4.67827e-38
9.35654e-38
-1.57594e-09
0
-1.57594e-09
0
-1.57594e-09
-1.57594e-09
1.46196e-39
3.74262e-37
-3.15189e-09
2.28431e-41
4.56862e-41
0
0
1.14216e-41
2.28431e-41
-1.57594e-09
0
1.49705e-36
1.14216e-41
4.56862e-41
-1.57594e-09
0
0
-1.57594e-09
-1.57594e-09
1.49705e-36
2.99409e-36
-1.57594e-09
0
-1.57594e-09
-1.57594e-09
0
5.71078e-42
-1.57594e-09
7.48523e-37
0
0
-1.57594e-09
-1.57594e-09
1.14216e-41
5.71078e-42
2.85539e-42
0
-3.15189e-09
0
0
-1.57594e-09
0
-1.57594e-09
-1.57594e-09
-1.57594e-09
-3.15189e-09
0
2.92392e-39
0
4.56862e-41
-1.57594e-09
0
-1.57594e-09
5.71078e-42
-3.15189e-09
0
-3.15189e-09
0
-1.57594e-09
2.28431e-41
4.56862e-41
0
0
0
-1.57594e-09
-1.57594e-09
-1.57594e-09
-1.57594e-09
-1.57594e-09
-1.57594e-09
-1.57594e-09
1.42769e-42
2.99409e-36
0
-1.57594e-09
-1.57594e-09
-1.57594e-09
-1.57594e-09
1.14216e-41
-1.57594e-09
0
2.99409e-36
0
-1.57594e-09
0
0
0
)
;

boundaryField
{
    fuel
    {
        type            calculated;
        value           uniform 0;
    }
    primary_air
    {
        type            calculated;
        value           uniform 0;
    }
    Secondary_air_RHS
    {
        type            calculated;
        value           uniform 0;
    }
    Secondary_air_LHS
    {
        type            calculated;
        value           uniform 0;
    }
    outlet
    {
        type            calculated;
        value           uniform 0;
    }
    stove_body
    {
        type            calculated;
        value           uniform 0;
    }
    frontAndBack
    {
        type            empty;
    }
}


// ************************************************************************* //
