/*--------------------------------*- C++ -*----------------------------------*\
  =========                 |
  \\      /  F ield         | OpenFOAM: The Open Source CFD Toolbox
   \\    /   O peration     | Website:  https://openfoam.org
    \\  /    A nd           | Version:  6
     \\/     M anipulation  |
\*---------------------------------------------------------------------------*/
FoamFile
{
    version     2.0;
    format      ascii;
    class       volScalarField;
    location    "0.02";
    object      T;
}
// * * * * * * * * * * * * * * * * * * * * * * * * * * * * * * * * * * * * * //

dimensions      [0 0 0 1 0 0 0];

internalField   nonuniform List<scalar> 
297
(
297.09
297.095
297.089
297.972
297.974
297.97
297.083
297.087
297.084
297.15
297.164
297.152
298.636
298.639
298.64
297.139
297.138
297.145
296.982
296.887
296.983
299.533
299.53
299.546
296.978
297.023
296.99
301.546
298.172
301.444
299.37
297.127
299.283
301.564
298.186
301.43
303.558
301.645
303.611
298.747
296.472
298.635
303.547
301.639
303.603
304.062
301.001
304.224
295.417
303.477
295.469
304.062
300.991
304.195
293.527
303.808
293.856
304.412
301.233
304.4
293.507
303.774
293.844
299.449
302.186
300.152
303.67
302.934
303.744
299.485
302.098
300.086
304.315
305.138
304.922
304.937
305.454
305.447
304.404
305.008
304.778
289.432
299.795
289.353
289.785
300.076
289.661
288.757
299.795
289.988
288.153
299.892
288.704
287.349
300.074
287.229
288.109
299.892
288.712
290.207
300.243
290.717
288.671
300.479
288.537
290.173
300.243
290.718
303.55
305.377
304.03
304.822
306.021
305.13
303.671
305.182
303.837
304.617
305.406
305.136
305.526
306.88
305.765
304.795
305.408
304.89
305.173
306.557
305.546
305.699
307.236
305.94
305.298
306.698
305.307
303.779
303.822
304.055
304.74
304.719
304.895
303.541
303.616
303.853
304.743
304.519
304.541
305.406
305.286
305.366
304.499
304.226
304.243
305.293
305.037
304.71
306.061
305.982
305.83
305.007
304.766
304.439
303.682
303.45
303.399
304.582
304.408
304.414
303.695
303.465
303.393
304.037
304.014
304.246
305.103
305.009
305.127
304.196
304.173
304.445
304.221
304.536
304.783
305.566
305.713
305.766
304.337
304.66
304.917
304.42
304.48
303.979
305.295
305.229
304.908
304.447
304.448
303.991
304.277
304.271
303.855
305.599
305.545
305.354
304.278
304.311
303.964
303.986
303.91
303.677
305.663
305.627
305.571
304.074
304.008
303.808
303.744
303.584
303.481
306.356
305.857
306.132
303.789
303.614
303.619
299.865
299.942
299.938
303.275
303.06
303.778
299.533
299.948
299.062
292.546
292.59
292.634
292.271
292.569
292.788
292.547
292.591
292.633
304.38
304.892
304.898
305.271
305.596
305.628
304.142
304.641
304.61
304.284
304.53
304.646
305.626
305.838
305.914
304.06
304.45
304.416
304.197
304.12
304.424
305.814
305.85
305.974
303.885
304.104
304.164
304.079
303.737
304.123
306.489
306.028
306.676
303.69
303.79
303.904
296.978
300.031
296.799
303.418
303.048
302.834
299.115
299.293
299.499
292.655
292.617
292.563
292.689
292.652
292.126
292.656
292.614
292.565
)
;

boundaryField
{
    fuel
    {
        type            fixedValue;
        value           uniform 293;
    }
    primary_air
    {
        type            fixedValue;
        value           uniform 293;
    }
    Secondary_air_RHS
    {
        type            fixedValue;
        value           uniform 293;
    }
    Secondary_air_LHS
    {
        type            fixedValue;
        value           uniform 293;
    }
    outlet
    {
        type            inletOutlet;
        inletValue      uniform 293;
        value           nonuniform List<scalar> 
18
(
293
292.688
293
293
292.65
293
293
292.125
293
293
292.269
293
293
292.567
293
293
292.787
293
)
;
    }
    stove_body
    {
        type            fixedValue;
        value           uniform 293;
    }
    frontAndBack
    {
        type            empty;
    }
}


// ************************************************************************* //
