/*--------------------------------*- C++ -*----------------------------------*\
  =========                 |
  \\      /  F ield         | OpenFOAM: The Open Source CFD Toolbox
   \\    /   O peration     | Website:  https://openfoam.org
    \\  /    A nd           | Version:  6
     \\/     M anipulation  |
\*---------------------------------------------------------------------------*/
FoamFile
{
    version     2.0;
    format      ascii;
    class       volVectorField;
    location    "0.02";
    object      U;
}
// * * * * * * * * * * * * * * * * * * * * * * * * * * * * * * * * * * * * * //

dimensions      [0 1 -1 0 0 0 0];

internalField   nonuniform List<vector> 
297
(
(29.0787 -0.0246854 0.286759)
(29.1006 -0.00206843 0.295508)
(29.0821 0.0227504 0.303784)
(-1.7458e-05 -0.0426432 -0.048967)
(5.231e-05 -0.00885459 -0.0390265)
(8.95248e-05 0.0344028 -0.00109154)
(-29.0712 -0.0276335 0.286602)
(-29.0469 0.000454453 0.29026)
(-29.0756 0.0282043 0.303816)
(25.2971 -0.0279228 0.468919)
(25.1782 -0.00266672 0.474382)
(25.3039 0.0252638 0.489459)
(-1.49502e-05 -0.0599255 -0.125151)
(4.27012e-05 0.00865585 -0.0720436)
(7.28035e-05 0.0699147 -0.0540627)
(-25.3118 -0.0325473 0.46807)
(-25.3519 -0.000744936 0.472215)
(-25.3214 0.0318515 0.488584)
(22.2933 -0.0417456 0.361331)
(22.2862 0.00464906 0.390418)
(22.2934 0.0465227 0.380495)
(-1.61336e-05 -0.0569238 -0.0109431)
(4.0933e-05 0.0193548 0.0549579)
(7.36134e-05 0.0775202 0.0110957)
(-22.2931 -0.0448415 0.362168)
(-22.2963 0.00723852 0.395253)
(-22.2939 0.0522473 0.380701)
(22.4413 9.76616 5.02948)
(22.0733 0.920777 7.65697)
(22.4337 -9.72586 6.10659)
(-0.000136101 5.97084 3.4524)
(-1.74184e-05 0.492778 1.56948)
(9.36841e-05 -5.86166 3.80096)
(-22.4432 9.79736 4.85343)
(-22.0742 1.06594 7.64005)
(-22.4318 -9.64836 6.28449)
(22.6608 11.5935 12.3348)
(22.6057 1.13029 42.7183)
(22.6769 -12.4525 14.6672)
(0.000874244 25.4264 78.413)
(0.000128544 0.393663 71.5256)
(-0.000499446 -26.1494 79.5896)
(-22.6571 11.7803 12.822)
(-22.6041 0.113431 42.6117)
(-22.6778 -12.1906 14.4074)
(22.0659 -0.893918 -9.68841)
(22.659 0.575869 62.9274)
(22.0792 0.12241 -4.77047)
(0.000571597 -20.7376 119.297)
(5.07127e-05 0.442163 -13.5232)
(-0.000295283 20.0045 120.485)
(-22.0635 -1.24049 -9.37976)
(-22.6578 1.40661 62.9644)
(-22.0785 -0.28357 -5.09604)
(22.2505 -18.86 -122.145)
(22.2471 -2.56974 -5.59123)
(22.3043 19.3119 -119.427)
(-0.00043684 -4.0748 8.4756)
(-0.000151618 1.85542 -81.2074)
(0.000302307 3.28542 12.0878)
(-22.2507 -18.9669 -122.159)
(-22.2452 -2.6708 -5.67013)
(-22.3023 19.2281 -119.412)
(22.4345 39.2277 -81.3101)
(22.4355 -8.65649 -74.4146)
(22.4913 -33.5645 -79.1481)
(-0.000350845 12.7519 -38.7743)
(-0.000116026 2.70207 -60.9793)
(0.000155263 -13.7518 -39.782)
(-22.4381 39.1198 -81.251)
(-22.4293 -8.25049 -74.3932)
(-22.4863 -33.6442 -79.1828)
(22.7827 37.9975 -25.5049)
(22.7888 -13.1529 -21.2365)
(22.8317 -33.0651 -26.2647)
(-0.000853843 28.4731 -30.5598)
(-5.53408e-06 12.4998 -27.3552)
(0.000567657 -18.7866 -29.9561)
(-22.7923 38.0495 -25.5552)
(-22.7787 -12.2422 -21.2435)
(-22.8204 -33.0309 -26.199)
(16.4453 2.02058 -180.566)
(21.7552 -0.313157 85.361)
(16.5084 -2.21626 -177.867)
(-0.0063279 -12.1969 167.665)
(-0.000292594 1.25198 -100.802)
(0.00613062 11.4153 168.585)
(-16.4188 1.73918 -180.744)
(-21.7536 -0.409426 85.3222)
(-16.533 -2.49357 -177.702)
(17.2425 -3.84166 -183.999)
(19.423 -0.391775 84.7547)
(17.3218 3.83999 -181.387)
(-0.00494886 -6.52107 187.22)
(-0.000305005 1.32299 -103.77)
(0.0048237 5.6411 188.029)
(-17.2478 -4.05228 -184.216)
(-19.4262 -0.566763 84.7191)
(-17.3141 3.63589 -181.178)
(21.0984 -10.1926 -166.201)
(19.6173 -0.387597 82.183)
(21.1514 10.4054 -163.603)
(-0.00334826 -0.983706 183.792)
(-0.000339317 1.3866 -104.182)
(0.00330613 0.063498 184.637)
(-21.1195 -10.3248 -166.359)
(-19.6207 -0.649725 82.1449)
(-21.1292 10.2839 -163.451)
(22.4272 54.3653 -14.5339)
(22.647 0.304327 -14.7887)
(22.4657 -55.144 -14.4107)
(-0.000375152 38.8622 -15.8003)
(7.7668e-05 -3.76622 -15.5641)
(0.000104028 -39.674 -13.9967)
(-22.4355 54.4408 -14.6124)
(-22.6241 1.51354 -14.8939)
(-22.4542 -54.664 -14.321)
(22.7261 33.6184 -4.57115)
(22.8433 -4.719 -1.28142)
(22.7663 -34.1983 -4.75243)
(-0.00022923 20.6924 -8.31116)
(-4.21576e-05 0.888073 -6.68944)
(-3.21774e-05 -22.0322 -7.69132)
(-22.7386 33.4747 -4.7856)
(-22.8419 -3.85664 -1.05418)
(-22.748 -34.1116 -4.6604)
(22.8551 -3.18162 -4.63987)
(22.9669 -0.734799 3.71729)
(22.8817 3.94792 -4.74583)
(-0.000197037 5.90028 -5.08796)
(-9.57288e-05 -1.55565 -1.79097)
(-7.25969e-05 -7.23665 -4.44089)
(-22.864 -3.2621 -4.67905)
(-22.9776 -0.488158 3.63729)
(-22.8647 3.8921 -4.67227)
(22.436 -58.026 -6.02946)
(22.6885 -52.6561 -9.28145)
(22.6078 -44.9503 -12.6547)
(-0.000118487 -44.9568 -5.58679)
(-0.000310574 -42.9204 -5.07372)
(-0.00091234 -36.1032 -5.28655)
(-22.4217 -57.447 -5.97051)
(-22.6741 -52.0834 -9.19335)
(-22.5959 -44.4808 -12.5155)
(22.6221 -42.7514 -2.65885)
(22.7867 -44.3563 -10.5073)
(22.4924 -37.7308 -19.9259)
(-3.94047e-05 -36.4947 -0.23746)
(-4.02594e-05 -36.7171 1.77689)
(-0.000482018 -30.869 3.87208)
(-22.6057 -42.3527 -2.7544)
(-22.7649 -43.9529 -10.5658)
(-22.4768 -37.4764 -19.8248)
(22.8811 -7.50857 -4.69852)
(22.8631 -23.6911 -18.8434)
(22.5234 -32.4702 -28.5771)
(0.000109143 -19.0202 2.33988)
(0.00025943 -20.7369 4.22198)
(0.000295547 -22.6915 3.82862)
(-22.8596 -7.24984 -4.49247)
(-22.841 -23.3848 -18.6665)
(-22.5043 -32.1476 -28.2325)
(22.5855 44.2806 -12.4855)
(22.6621 51.7176 -9.16896)
(22.4115 57.1225 -6.02118)
(0.00026952 35.8538 -5.28029)
(-2.39903e-05 42.2891 -5.0089)
(-0.000167698 44.9385 -5.65941)
(-22.5856 44.2533 -12.5063)
(-22.6634 51.7632 -9.14777)
(-22.4108 57.2677 -6.00695)
(22.4663 37.125 -19.5715)
(22.7489 43.6326 -10.446)
(22.5915 41.9051 -2.77723)
(9.26509e-05 30.5398 3.73953)
(-0.000145253 36.3589 1.79302)
(-0.000155288 36.3027 -0.534844)
(-22.4732 37.1591 -19.7262)
(-22.7613 43.8108 -10.4784)
(-22.6031 42.0964 -2.81263)
(22.4898 31.8184 -27.8867)
(22.8227 23.2814 -18.7597)
(22.8418 6.74802 -4.57055)
(-0.000308995 22.385 3.77998)
(-0.000257568 20.3774 4.13072)
(-0.000222506 18.7459 2.07899)
(-22.4986 31.9568 -28.1005)
(-22.834 23.329 -18.6979)
(-22.8526 6.92475 -4.54996)
(22.4584 13.708 -21.6812)
(22.4587 20.5918 -14.8526)
(22.524 31.7009 -17.6156)
(0.000104848 13.268 -10.9626)
(0.000162918 17.9899 -5.93162)
(0.000335133 27.0309 -6.53756)
(-22.4604 13.6397 -21.6476)
(-22.4558 20.5772 -14.7491)
(-22.5235 31.641 -17.5916)
(22.4971 5.36 -33.1284)
(22.501 17.6522 -23.6171)
(22.4161 30.8897 -29.8055)
(7.86612e-05 8.95235 -10.2944)
(0.000263789 14.1342 -4.72511)
(0.000424467 24.6224 -2.94747)
(-22.4969 5.35007 -33.0766)
(-22.5008 17.7894 -23.415)
(-22.4126 30.8873 -29.8193)
(22.7774 4.57192 -41.353)
(22.5314 19.6958 -36.649)
(22.4538 17.9839 -45.9097)
(0.000183864 7.21842 -16.1415)
(0.000273105 14.6713 -10.5034)
(0.000256502 20.2177 -1.73831)
(-22.7836 4.57987 -41.2751)
(-22.5394 19.6995 -36.5159)
(-22.4592 17.9918 -46.1633)
(22.6823 -5.51705 -65.6595)
(22.6422 -4.12778 -61.2926)
(22.6748 -10.1526 -65.8926)
(0.000283231 -6.4781 5.09595)
(0.000303162 1.86022 17.7193)
(0.000336057 -7.76529 13.784)
(-22.6848 -5.50344 -65.6119)
(-22.6434 -4.08752 -61.0454)
(-22.6839 -10.1376 -66.1814)
(22.2591 2.50056 -130.887)
(22.2497 -1.22124 -131.44)
(22.2427 4.70114 -130.154)
(5.64249e-05 -2.02569 62.6053)
(4.84705e-05 0.0578031 66.31)
(3.49355e-05 -1.43165 60.0448)
(-22.2342 2.49572 -130.939)
(-22.2498 -1.22449 -131.398)
(-22.1772 4.72111 -130.201)
(21.1775 -0.0905537 -164.615)
(21.1806 -0.0284728 -164.53)
(21.1829 -0.163622 -164.201)
(-0.000333097 -0.623622 172.489)
(-0.000333846 0.215951 170.823)
(-0.000353986 -0.395345 168.85)
(-21.1781 -0.0886831 -164.608)
(-21.1815 -0.0223167 -164.543)
(-21.1831 -0.151248 -164.162)
(22.5466 -32.3137 -17.8739)
(22.4792 -20.9955 -15.0666)
(22.4815 -13.9205 -22.2104)
(-0.00153332 -27.5265 -6.6031)
(-0.00206136 -18.2475 -6.03242)
(-0.00260803 -13.5156 -11.1171)
(-22.5327 -31.8484 -17.6712)
(-22.4681 -20.6954 -14.8062)
(-22.4711 -13.7274 -21.7105)
(22.4231 -31.2266 -30.103)
(22.5056 -18.2374 -23.5525)
(22.5137 -5.40875 -33.8865)
(-0.00133803 -24.9566 -2.98076)
(-0.00164857 -14.3619 -4.88025)
(-0.00207967 -9.03332 -10.5361)
(-22.4226 -31.0577 -30.061)
(-22.511 -17.8802 -23.6627)
(-22.5053 -5.41664 -33.2278)
(22.4766 -18.2195 -46.856)
(22.5393 -19.906 -36.6148)
(22.8078 -4.59884 -42.1971)
(-0.000956257 -20.3925 -1.71949)
(-0.0014136 -14.8967 -10.742)
(-0.00180072 -7.31138 -16.4396)
(-22.4633 -18.1176 -46.3807)
(-22.5456 -19.825 -36.9577)
(-22.79 -4.61407 -41.5291)
(22.7147 10.1358 -67.2226)
(22.6484 4.14203 -60.5439)
(22.7072 5.64882 -66.6733)
(-0.000640463 7.75695 13.5974)
(-0.000573386 -1.82188 17.7907)
(-0.000578593 6.50686 4.54691)
(-22.6883 10.1718 -66.4476)
(-22.6557 4.14794 -61.8811)
(-22.6926 5.5264 -66.1601)
(22.0197 -4.74527 -130.987)
(22.2525 1.26447 -131.96)
(22.0274 -2.49058 -131.933)
(5.59835e-05 1.49596 59.9082)
(8.33882e-07 -0.0370491 66.4845)
(3.70238e-05 2.05815 62.8125)
(-22.1791 -4.68173 -130.839)
(-22.1993 1.20824 -132.107)
(-22.23 -2.50034 -131.584)
(21.1837 0.132832 -164.778)
(21.1835 0.0436412 -165.295)
(21.1773 0.0991357 -165.176)
(0.00129569 0.394336 168.482)
(0.001277 -0.221116 170.432)
(0.0013648 0.635302 172.317)
(-21.182 0.153679 -164.846)
(-21.1799 0.0238043 -165.181)
(-21.1767 0.0848265 -165.29)
)
;

boundaryField
{
    fuel
    {
        type            fixedValue;
        value           uniform (0 0 0.25);
    }
    primary_air
    {
        type            fixedValue;
        value           uniform (0 0 2.5);
    }
    Secondary_air_RHS
    {
        type            fixedValue;
        value           uniform (0 150 0);
    }
    Secondary_air_LHS
    {
        type            fixedValue;
        value           uniform (0 -150 0);
    }
    outlet
    {
        type            pressureInletOutletVelocity;
        value           nonuniform List<vector> 
18
(
(0 0 -164.778)
(0.00129569 0.394336 168.482)
(0 0 -164.846)
(0 0 -165.295)
(0.001277 -0.221116 170.432)
(0 0 -165.181)
(0 0 -165.176)
(0.0013648 0.635302 172.317)
(0 0 -165.29)
(0 0 -164.615)
(-0.000333097 -0.623622 172.489)
(0 0 -164.608)
(0 0 -164.53)
(-0.000333846 0.215951 170.823)
(0 0 -164.543)
(0 0 -164.201)
(-0.000353986 -0.395345 168.85)
(0 0 -164.162)
)
;
    }
    stove_body
    {
        type            noSlip;
    }
    frontAndBack
    {
        type            empty;
    }
}


// ************************************************************************* //
