# Probe 0 (0 -0.07 0.5)
# Probe 1 (0 -0.04 0.5)
# Probe 2 (0 -0.07 0.3)
# Probe 3 (0 -0.07 0.33)
# Probe 4 (0 -0.04 0.3)
# Probe 5 (0 -0.04 0.33)
# Probe 6 (0 0 0.33)
# Probe 7 (0 0 0.3)
# Probe 8 (0 0.1 0.33)
# Probe 9 (0 0.1 0.3)
# Probe 10 (0 0.14 0.3)
# Probe 11 (0 0.14 0.33)
# Probe 12 (0 0.17 0.3)
# Probe 13 (0 0.17 0.33)
# Probe 14 (0 0.14 0.5)
# Probe 15 (0 0.14 0.33)
#       Probe             0             1             2             3             4             5             6             7             8             9            10            11            12            13            14            15
#        Time
         0.01       292.998       293.059       305.652       304.642       305.237       305.712       313.412       310.223       313.441        310.37       305.097       305.703       305.617       304.851        293.02       305.703
         0.02       292.546       292.634        304.42       303.986       303.682       304.221       305.173       304.315       305.546       304.922       304.055        304.71       304.898       304.424       292.655        304.71
         0.03       292.636       292.718       304.616       304.188        303.77       304.319       304.642       304.309       305.136       304.716       304.228       304.919       305.169         304.8        292.75       304.919
