/*--------------------------------*- C++ -*----------------------------------*\
  =========                 |
  \\      /  F ield         | OpenFOAM: The Open Source CFD Toolbox
   \\    /   O peration     | Website:  https://openfoam.org
    \\  /    A nd           | Version:  6
     \\/     M anipulation  |
\*---------------------------------------------------------------------------*/
FoamFile
{
    version     2.0;
    format      ascii;
    class       volScalarField;
    location    "0.01";
    object      O2;
}
// * * * * * * * * * * * * * * * * * * * * * * * * * * * * * * * * * * * * * //

dimensions      [0 0 0 0 0 0 0];

internalField   nonuniform List<scalar> 
297
(
0
0
0
0
0
0
0
0
0
0
0
0
0
0
0
0
0
0
0
0
0
0
0
0
0
0
0
0.0531564
0.0638738
0.0550085
0.0774883
0.0824545
0.0782056
0.0530107
0.0640635
0.0556165
0
0.00505904
0
0.0297371
0.0418056
0.0288873
0
0.00510232
0
0
0.00314937
0
0.0123844
0.00892625
0.0120865
0
0.00318554
0
0.000392453
0.00137284
0.000394749
0
0.000200221
0
0.000400223
0.00138932
0.000397394
0
1.58222e-08
0
0
0
0
0
1.61997e-08
0
2.09578e-15
8.66418e-10
1.27851e-16
0
6.56683e-10
0
6.17348e-16
1.13828e-09
0
0
0.00302296
0
0
0.000202417
0
0
0.00305651
0
0
0.00298485
0
0
0.00019804
0
0
0.00301796
0
0
0.002901
0
0
0.00019915
0
0
0.00293391
0
1.5957e-16
6.78414e-14
1.97025e-16
1.23603e-16
2.72591e-14
2.43366e-17
3.31972e-16
8.81111e-14
2.78138e-16
9.86888e-16
5.30841e-14
1.21545e-15
1.39487e-15
1.6996e-14
1.43422e-15
1.75506e-15
7.39365e-14
1.41782e-15
1.96106e-14
6.09644e-14
2.00869e-14
5.49519e-15
1.41559e-14
5.57918e-15
3.02868e-14
8.73331e-14
2.8493e-14
3.13978e-18
1.15032e-18
1.2258e-21
4.12404e-18
1.63818e-19
1.05387e-21
3.20427e-18
1.34599e-18
9.13246e-21
1.0768e-16
1.1606e-17
2.98385e-21
3.59651e-17
9.63012e-19
1.17983e-21
1.08152e-16
1.42539e-17
1.68665e-20
2.79287e-15
5.89657e-17
5.89695e-21
5.47205e-16
1.94046e-18
9.63311e-22
3.92799e-15
7.32024e-17
8.87325e-21
3.06307e-21
1.16289e-18
3.16891e-18
2.58238e-21
1.19514e-19
2.24356e-18
1.96207e-20
1.24573e-18
4.38097e-18
9.81968e-21
1.72255e-17
1.11054e-16
1.82993e-21
1.04144e-18
2.95115e-17
3.84266e-20
1.02928e-17
1.61464e-16
2.9364e-20
9.62755e-17
1.62934e-15
2.17618e-21
3.80114e-18
4.09405e-16
3.86591e-20
5.37588e-17
2.56611e-15
1.62074e-31
1.01124e-28
1.4128e-24
6.97952e-29
8.83511e-28
5.44636e-25
5.98403e-31
7.79601e-28
3.58038e-24
1.92555e-31
1.58075e-28
1.67672e-24
5.603e-28
3.90173e-27
7.53573e-25
1.55383e-30
4.56423e-28
3.68183e-24
3.5534e-31
4.33111e-29
1.05717e-24
1.26746e-27
1.67191e-26
9.332e-25
2.30326e-30
8.82567e-29
1.32594e-24
5.8744e-31
5.06843e-30
2.93949e-29
5.21917e-27
3.01516e-25
1.02529e-24
3.15978e-30
1.5411e-29
1.13549e-28
2.45319e-31
2.55315e-30
9.53241e-30
2.47877e-26
2.74131e-25
9.81668e-25
2.13101e-31
3.36332e-30
8.4231e-30
8.18106e-32
7.78666e-31
2.83798e-30
1.37914e-26
1.30542e-25
4.75915e-25
8.21131e-32
7.75225e-31
2.84421e-30
3.02656e-25
2.01607e-28
7.22614e-31
4.16286e-25
1.66893e-27
1.37754e-27
2.45387e-24
8.89397e-28
6.81087e-30
6.04801e-25
5.64732e-29
9.16232e-31
5.66448e-25
6.90419e-27
3.70868e-27
1.7387e-24
2.10746e-28
6.29906e-30
2.58264e-25
1.58457e-29
9.59383e-31
6.90699e-25
2.40767e-26
3.97575e-27
3.4475e-25
4.86098e-29
5.77873e-30
3.24113e-29
6.25448e-30
1.17001e-30
1.48899e-24
4.42956e-25
7.23957e-27
1.31889e-28
3.20221e-29
5.49756e-30
1.02123e-29
3.54285e-30
2.50356e-31
1.46075e-24
3.90384e-25
3.50696e-26
1.23394e-29
3.079e-30
2.96921e-31
4.19222e-30
1.06175e-30
1.11018e-31
7.04129e-25
1.80997e-25
1.91384e-26
4.22606e-30
1.06612e-30
1.12056e-31
)
;

boundaryField
{
    fuel
    {
        type            fixedValue;
        value           uniform 0;
    }
    primary_air
    {
        type            fixedValue;
        value           uniform 0.23;
    }
    Secondary_air_RHS
    {
        type            fixedValue;
        value           uniform 0.23;
    }
    Secondary_air_LHS
    {
        type            fixedValue;
        value           uniform 0.23;
    }
    outlet
    {
        type            inletOutlet;
        inletValue      uniform 0;
        value           nonuniform List<scalar> 
18
(
0
7.04129e-25
0
0
1.80997e-25
0
0
1.91384e-26
0
0
1.37914e-26
0
0
1.30542e-25
0
0
4.75915e-25
0
)
;
    }
    stove_body
    {
        type            fixedValue;
        value           uniform 0;
    }
    frontAndBack
    {
        type            empty;
    }
}


// ************************************************************************* //
