/*--------------------------------*- C++ -*----------------------------------*\
  =========                 |
  \\      /  F ield         | OpenFOAM: The Open Source CFD Toolbox
   \\    /   O peration     | Website:  https://openfoam.org
    \\  /    A nd           | Version:  6
     \\/     M anipulation  |
\*---------------------------------------------------------------------------*/
FoamFile
{
    version     2.0;
    format      ascii;
    class       volScalarField;
    location    "0.01";
    object      p;
}
// * * * * * * * * * * * * * * * * * * * * * * * * * * * * * * * * * * * * * //

dimensions      [1 -1 -2 0 0 0 0];

internalField   nonuniform List<scalar> 
297
(
86106.7
86106.7
86106.7
143444
143444
143444
86106.7
86106.7
86106.7
86106.3
86106.3
86106.3
143445
143445
143445
86106.3
86106.3
86106.3
86106
86105.9
86105.9
143446
143446
143446
86106
86105.9
86106
94389.6
94474.5
94513.4
156801
156969
156993
94393.1
94476
94513.5
95110
94736.5
95207.6
157379
157923
157443
95125.9
94734.2
95187.3
92693.4
92547.2
92895.3
148906
154413
149057
92680.8
92545.8
92902.3
89461.2
92932
89531.3
152780
152828
152987
89470.4
92933.9
89526.1
96013.6
96589.7
96104.7
160268
159718
160477
96022.5
96591.9
96102.3
96929.5
97390.7
96973.7
161497
161974
161623
96923.6
97388.8
96980.8
69727.4
90717.9
69987.4
113587
148014
113807
69611.5
90714.3
70097.5
68217.7
90604.3
68479
109559
147536
109735
68108.9
90600.7
68584.6
70492.9
90762
70744.2
112376
147901
112527
70410.2
90758.6
70826.5
97882.4
97870.4
97889
162765
162739
162787
97866
97864.5
97901.1
98062.8
97925.5
98053.3
163124
162909
163120
98049.8
97919.9
98060.3
98131.7
97964.7
98116.8
163259
162996
163246
98121.2
97959.9
98121.1
98535.2
98897.5
99420.2
163648
164077
164510
98530.9
98889.6
99409.5
98461.1
98742.5
99147.7
163717
164031
164359
98456.5
98736.1
99140.4
98420.1
98532.7
98684.4
163815
164082
164277
98416.2
98528.8
98681.9
99472.8
98947.3
98572
164633
164187
163741
99468.5
98941.7
98565.7
99203.2
98793.7
98504.4
164489
164160
163796
99199.2
98788.6
98498.4
98757.4
98591.9
98463.9
164409
164198
163883
98753.4
98586.7
98457.7
100485
100296
99960.2
165511
165370
165080
100488
100298
99959.6
100274
100058
99707.6
165269
165138
164863
100277
100060
99708.3
100012
99791.1
99414.3
164932
164775
164568
100015
99793.8
99415.4
98624.6
98563.9
98443.3
163197
163129
163064
98626.4
98565.9
98445.4
92732.9
92759.3
92799.7
153316
153311
153309
92732
92758.1
92798.4
84768.6
84771
84775.9
135953
135940
135939
84768.1
84770.7
84775.7
99925.6
100276
100471
164978
165287
165439
99912.5
100260
100453
99677.6
100040
100261
164764
165061
165203
99665.4
100025
100245
99389
99784.9
100003
164478
164714
164884
99377.9
99770.2
99989.5
98469.4
98591.8
98654.8
163096
163167
163237
98469.7
98591.6
98653.4
92868
92828.2
92802.6
153408
153413
153422
92871.4
92831.6
92806.5
84742.2
84737.5
84734.9
135910
135909
135919
84748.2
84743.5
84740.9
)
;

boundaryField
{
    fuel
    {
        type            zeroGradient;
    }
    primary_air
    {
        type            zeroGradient;
    }
    Secondary_air_RHS
    {
        type            zeroGradient;
    }
    Secondary_air_LHS
    {
        type            zeroGradient;
    }
    outlet
    {
        type            totalPressure;
        rho             rho;
        psi             none;
        gamma           1;
        p0              uniform 100000;
        value           nonuniform List<scalar> 
18
(
87922
100000
87924.4
87873.1
100000
87878.7
87869.4
100000
87870.9
87873.3
100000
87874.3
87880.8
100000
87880.8
87927.1
100000
87927.8
)
;
    }
    stove_body
    {
        type            zeroGradient;
    }
    frontAndBack
    {
        type            empty;
    }
}


// ************************************************************************* //
