/*--------------------------------*- C++ -*----------------------------------*\
  =========                 |
  \\      /  F ield         | OpenFOAM: The Open Source CFD Toolbox
   \\    /   O peration     | Website:  https://openfoam.org
    \\  /    A nd           | Version:  6
     \\/     M anipulation  |
\*---------------------------------------------------------------------------*/
FoamFile
{
    version     2.0;
    format      ascii;
    class       surfaceScalarField;
    location    "0.01";
    object      phi;
}
// * * * * * * * * * * * * * * * * * * * * * * * * * * * * * * * * * * * * * //

dimensions      [1 0 -1 0 0 0 0];

internalField   nonuniform List<scalar> 
675
(
7.90392e-07
-8.43491e-05
0.000204249
2.64277e-08
-8.47064e-05
0.000206031
-8.46036e-05
0.000205321
2.71194e-06
8.4382e-05
1.64886e-06
-3.27787e-06
8.46633e-05
9.62933e-06
8.456e-05
6.74448e-07
7.75349e-07
0.000204332
-6.20281e-08
0.000206112
0.000205226
-5.96628e-08
1.88374e-05
0.000204661
-2.67937e-07
1.835e-05
0.000207058
1.84085e-05
0.000205982
1.56499e-06
-1.8781e-05
-9.6911e-06
1.14118e-06
-1.83485e-05
2.65903e-07
-1.8428e-05
-8.89933e-06
-3.34692e-08
0.000204746
-3.29027e-07
0.00020715
0.00020574
-1.21589e-06
0.000103362
-1.07189e-07
0.000103449
0.000103357
-3.56933e-06
-0.000103378
2.80273e-06
-0.000103335
-0.00010337
-1.14774e-06
1.51311e-07
0.00437608
0.0105133
-0.0132623
-0.00529029
0.0123366
-0.00113192
0.0112121
-0.0146297
0.000162159
-0.0104754
0.0228776
-0.00200088
-0.0123036
0.0288903
-0.0112438
0.0228483
0.00477241
-0.0135982
-0.00489119
-0.00108073
-0.0142577
0.0341405
0.0252818
-0.0733424
-0.029634
-0.0109905
0.0732983
0.0288476
-0.0730934
0.0159995
-0.0257533
0.0557521
-0.0249213
0.0110076
0.0459048
-0.0284081
0.0543575
0.0335652
-0.0735885
-0.0302193
0.073371
-0.0728632
0.010767
0.0664212
-0.15019
-0.00879789
0.00163276
0.0919404
0.0682421
-0.149116
-0.112701
-0.0662339
0.301578
0.109799
-0.00167922
-0.172201
-0.0684111
0.302657
0.0110841
-0.150583
-0.00849809
0.0919661
-0.148751
-0.0618012
-0.0681352
-0.0504541
0.180828
0.0611239
0.0167059
-0.0635066
-0.0749323
-0.0686934
-0.0492046
0.179859
-0.00591072
0.0680305
0.117949
-0.247238
0.00773631
-0.0167169
-0.181952
0.203179
0.0687609
0.120167
-0.248241
-0.0622023
-0.0503645
0.181051
0.0607201
-0.0634855
-0.074946
-0.049313
0.179647
0.015661
-0.0344326
-0.0299604
-0.0187872
0.0138168
-0.0412494
-0.0370697
-0.0291407
0.0572372
0.0341533
-0.0051952
-0.0491475
-0.0138166
-0.0451202
0.0372805
-0.000623606
0.0153076
-0.0297986
-0.0190435
-0.0413349
-0.0293149
0.00785974
-0.0115895
-0.0239941
-0.0122118
0.00148164
-0.020742
-0.0155782
-0.0239923
0.00952457
0.0108525
-0.0334531
-0.00266322
-0.0012779
-0.026886
0.0163241
-0.0321517
0.0070041
-0.0237158
-0.0130019
-0.0207087
-0.024238
-0.00212332
-0.00132305
-0.160497
0.002151
0.000311718
0.0873999
-0.00130118
-0.159442
-0.00728684
0.00133568
0.283838
0.0072267
-0.000309645
-0.186049
0.00128879
0.284913
-0.00213812
-0.160839
0.0021324
0.0874321
-0.15913
-0.0020878
-0.000454047
-0.171413
0.00210191
-0.000562622
0.0838156
-0.000430306
-0.170396
-0.0032677
0.000462983
0.264596
0.00316482
0.000561777
-0.193561
0.000421717
0.265623
-0.00210715
-0.171707
0.00208387
0.083847
-0.170129
-0.00501924
0.00052164
0.00503595
-0.00112824
0.000559798
-0.00375389
-0.000515462
0.0036528
0.00112676
-0.000566555
-0.00506926
0.00500222
0.0079068
-0.00258291
-0.00983756
-0.0190095
-0.00750754
-0.00156058
-0.00335571
-0.00261149
-0.00958074
-0.0189828
0.00834169
0.00264319
-0.022206
-0.02405
-0.00900184
0.00168962
-0.0121174
0.00254519
-0.0218293
-0.0239329
0.00857124
-0.0101253
-0.0190477
-0.00679785
-0.00323898
-0.00931683
-0.0188453
0.00301396
0.000127301
-0.00107815
-0.0114535
-0.00333236
0.00146103
0.00191792
4.51926e-05
-0.00117513
-0.0114959
0.00313999
-5.95203e-06
-0.00878515
-0.0156712
-0.00321962
-0.00145991
-0.00217649
-0.000160934
-0.0087115
-0.0156204
0.00321026
-0.0014166
-0.0114764
-0.00302958
0.00192778
-0.000829687
-0.0113834
-0.0004665
0.00143902
-0.00157348
0.000598357
0.00127573
0.00135127
-0.00160187
-0.000498924
-0.00131106
-0.00479361
0.000593823
-0.00126641
-0.00146457
-0.00479466
-0.000617306
-0.00163318
0.000464315
-0.00150141
-0.0167983
-0.000741983
-0.00134309
-0.0158299
0.00167476
-0.00255035
0.00214045
-0.00532878
-0.0125463
-0.0227323
0.000729266
-0.00251714
-0.0191859
-0.00167179
-3.98059e-05
-0.00213145
0.00167349
-0.016443
-0.0167116
-0.00130051
-0.0157587
-0.00252707
-0.00531179
-0.0124829
-0.0117019
-0.000416975
-0.000616827
-0.0113245
0.000935693
-0.00376423
0.000627689
-0.00604718
-0.0111309
-0.0174283
0.000394839
-0.00136529
-0.0151567
-0.000935855
-0.000290662
-0.000648087
0.00211769
-0.0141839
-0.0116054
-0.00058627
-0.0112341
-0.00373626
-0.00606816
-0.0110271
-0.00246146
0.000333616
-0.00580684
-0.000326583
-0.00182449
-0.00990751
-0.00530806
-0.000367202
-0.00607614
0.000284838
0.00179548
-0.0074386
-0.002361
-0.00571846
-0.00987054
0.015758
0.00214705
-0.00531232
-0.0124318
0.0167542
0.00168549
-0.00251403
-0.000733004
-0.00134722
0.0190686
-0.00214315
0.0017431
-0.016309
0.0227045
-0.00167788
-1.08734e-05
0.000743981
-0.00254093
0.0157731
-0.00531626
-0.0124446
0.0167589
-0.00249208
-0.00136822
0.0112115
0.000622761
-0.00604018
-0.0109564
0.011616
0.000970276
-0.00372292
-0.000411597
-0.000597419
0.014914
-0.000620013
0.00220594
-0.0139162
0.0173847
-0.000963698
-0.000289745
0.000430093
-0.00139774
0.0112406
-0.00605593
-0.0109686
0.0116502
-0.00370028
-0.000591536
0.00563662
-0.00180592
-0.00970941
0.00237114
-0.000299472
0.000366856
0.00588285
0.00181056
-0.00710026
0.00522293
0.000307726
-0.000345715
0.00563638
-0.00971771
0.00240281
0.00584016
0.00185086
-0.00760495
0.00892642
0.00178911
-0.00478379
0.00196997
-0.00537518
0.00767123
-0.00185168
-0.00384935
0.0119621
-0.00178879
-0.000588246
-0.00196886
-0.000266556
0.00584539
-0.00760804
0.00893103
-0.00478196
-0.00538022
0.00421132
0.00160135
-0.0133315
0.00751
0.00153527
-0.00952947
0.00147247
-0.010197
0.00554213
-0.00160221
-0.00607732
0.00987558
-0.00153164
-0.00173898
-0.00147145
-0.0012306
0.00420983
-0.0133316
0.00750931
-0.00952276
-0.0102109
0.00587817
0.0035686
-0.0226991
0.0059602
0.00204563
-0.0115785
0.00142317
-0.0152724
0.0056586
-0.00357092
-0.0045016
0.00875569
-0.00204019
-0.000653286
-0.00141505
0.00337788
0.00586601
-0.0226871
0.00595417
-0.0115713
-0.0152909
-0.00714729
0.0123869
-0.0278155
-0.00145392
0.010456
-0.0276001
0.0108281
-0.0274215
-4.36324e-05
-0.0123791
0.0202718
-0.00442521
-0.010452
0.0245937
-0.0108221
0.0205869
-0.00714518
-0.0278028
-0.00145685
-0.0275906
-0.0274373
0.000302611
0.00597352
-0.0340691
0.000824826
0.00606889
-0.034164
0.00667798
-0.0332477
-0.00213893
-0.00597247
0.034214
-0.000728654
-0.00606894
0.0351504
-0.00667551
0.0330593
0.000311772
-0.0340712
0.000839179
-0.0341622
-0.0332519
-0.000182818
0.0180426
-0.000472295
0.0180353
0.0181096
-0.000752275
-0.0180408
0.000343744
-0.0180353
-0.0181076
-0.000183157
-0.000469084
-0.00903263
0.00196048
-0.00540863
-0.00589609
0.00176569
-0.0048332
0.0018305
-0.00765905
-0.0120298
-0.00195259
-0.000388743
-0.00769931
-0.00175918
-0.000707158
-0.00182434
-0.00394511
-0.00900198
-0.00536663
-0.00587788
-0.00481797
-0.00763455
-0.00761348
0.00147714
-0.0103218
-0.00426262
0.0015243
-0.00963456
0.00159117
-0.0134373
-0.00998079
-0.00149082
-0.00152322
-0.00558736
-0.00151666
-0.00195852
-0.00158629
-0.00625347
-0.00755704
-0.010251
-0.00424132
-0.00957676
-0.0133869
-0.00602106
0.00141811
-0.0155435
-0.00591565
0.00205211
-0.0117191
0.00355941
-0.0228391
-0.00892429
-0.00147712
0.00297173
-0.00570029
-0.00209339
-0.000927781
-0.00354604
-0.00473735
-0.00601855
-0.0155006
-0.00591295
-0.0117039
-0.0227723
0.00144571
0.0108282
-0.0272852
0.00710714
0.0104698
-0.0273461
0.0123999
-0.0276288
0.00433468
-0.0108385
0.0209459
-2.95874e-06
-0.0104644
0.0249472
-0.0123786
0.0206436
0.00137199
-0.0271976
0.00710179
-0.0273855
-0.0275422
-0.000888607
0.00665659
-0.0333581
-0.000324225
0.00604252
-0.034224
0.00594508
-0.0341697
0.000692365
-0.00667828
0.0329587
0.00211142
-0.00606907
0.0350366
-0.00597222
0.0341058
-0.000841926
-0.0333094
-0.000337992
-0.0342372
-0.0341266
0.000454227
0.0180885
0.00019627
0.0180229
0.0180202
-0.000323275
-0.0181156
0.000769779
-0.01804
-0.0180499
0.000472355
0.000179233
)
;

boundaryField
{
    fuel
    {
        type            calculated;
        value           nonuniform List<scalar> 
36
(
9.11813e-05
0.000151901
9.11813e-05
9.11813e-05
0.000151901
9.11813e-05
9.11813e-05
0.000151901
9.11813e-05
-9.11821e-05
-0.000151899
-9.11821e-05
-9.11821e-05
-0.000151899
-9.11821e-05
-9.11821e-05
-0.000151899
-9.11821e-05
0
0
0
0
0
0
0
0
0
0
0
0
0
0
0
0
0
0
)
;
    }
    primary_air
    {
        type            calculated;
        value           nonuniform List<scalar> 9(-0.0031039 -0.00515622 -0.00310402 -0.00310669 -0.00516175 -0.00310674 -0.00310797 -0.00516254 -0.00310798);
    }
    Secondary_air_RHS
    {
        type            calculated;
        value           nonuniform List<scalar> 9(0.0138087 0.0224542 0.0138305 0.0135113 0.021651 0.0135321 0.0139582 0.0222019 0.0139745);
    }
    Secondary_air_LHS
    {
        type            calculated;
        value           nonuniform List<scalar> 9(0.0137574 0.0224108 0.0137346 0.0134597 0.0216161 0.0134382 0.0139086 0.0221721 0.0138923);
    }
    outlet
    {
        type            calculated;
        value           nonuniform List<scalar> 
18
(
-0.0523591
0.068894
-0.0523544
-0.0524475
0.0693786
-0.0524371
-0.0524538
0.0702932
-0.0524508
-0.0524437
0.0703151
-0.0524418
-0.0524304
0.0694003
-0.0524304
-0.0523468
0.0688969
-0.0523455
)
;
    }
    stove_body
    {
        type            calculated;
        value           uniform 0;
    }
    frontAndBack
    {
        type            empty;
        value           nonuniform 0();
    }
}


// ************************************************************************* //
