/*--------------------------------*- C++ -*----------------------------------*\
  =========                 |
  \\      /  F ield         | OpenFOAM: The Open Source CFD Toolbox
   \\    /   O peration     | Website:  https://openfoam.org
    \\  /    A nd           | Version:  6
     \\/     M anipulation  |
\*---------------------------------------------------------------------------*/
FoamFile
{
    version     2.0;
    format      ascii;
    class       volScalarField;
    location    "0.01";
    object      Qdot;
}
// * * * * * * * * * * * * * * * * * * * * * * * * * * * * * * * * * * * * * //

dimensions      [1 -1 -3 0 0 0 0];

internalField   nonuniform List<scalar> 
297
(
3.46358e-05
3.46366e-05
-8.03889e-10
0
4.17434e-05
0
3.46358e-05
1.37641e-05
3.46366e-05
5.21652e-06
0
0
8.5865e-07
8.5865e-07
-1.60778e-09
8.65916e-06
8.65916e-06
3.44103e-06
-1.60778e-09
-1.60778e-09
0
0
0
0
0
0
0
0
0
0
-1.48961e-09
-1.48961e-09
-1.48961e-09
0
-1.54869e-09
-1.57824e-09
-1.60778e-09
-1.60408e-09
0
2.9542e-11
-1.60778e-09
0
0
-1.60778e-09
0
0
-1.60593e-09
0
-1.60778e-09
7.38551e-12
-1.59301e-09
-1.60778e-09
-1.60593e-09
0
-1.60778e-09
9.23189e-13
2.30797e-13
-1.60778e-09
2.30797e-13
0
-1.60778e-09
-1.60685e-09
2.30797e-13
-1.60778e-09
-1.60778e-09
0
0
0
-3.21556e-09
0
0
0
1.67927e-24
0
5.24772e-26
-1.60778e-09
8.80421e-19
-1.60778e-09
0
0
-1.60778e-09
0
1.84638e-12
-8.03889e-10
0
-1.60778e-09
-1.60778e-09
0
0
-8.03889e-10
0
1.84638e-12
-8.03889e-10
0
-1.60755e-09
0
0
0
0
-8.03889e-10
-1.60593e-09
-8.03889e-10
0
-1.60755e-09
-1.60778e-09
0
-1.60778e-09
-8.03889e-10
0
-1.60778e-09
1.04954e-25
1.04954e-25
0
2.62386e-26
2.09909e-25
5.37367e-23
-1.60778e-09
0
-1.60778e-09
-1.60778e-09
0
-1.60778e-09
-3.21556e-09
0
0
-1.60778e-09
-1.60778e-09
-1.60778e-09
1.34342e-23
6.71708e-24
1.34342e-23
-1.60778e-09
-1.60778e-09
0
0
0
-1.60778e-09
-1.60778e-09
-3.21556e-09
2.04989e-28
1.60148e-30
3.27982e-27
-1.60778e-09
0
-1.60778e-09
6.55965e-27
-1.60778e-09
0
-3.21556e-09
-3.21556e-09
0
0
-1.60778e-09
0
0
-1.60778e-09
8.39635e-25
1.63991e-27
0
-1.60778e-09
-1.60778e-09
-1.60778e-09
-1.60778e-09
-1.60778e-09
0
-3.21556e-09
0
0
-1.60778e-09
-1.60778e-09
0
-1.60778e-09
0
0
1.60148e-30
0
2.62386e-26
-1.60778e-09
0
-1.60778e-09
-1.60778e-09
5.24772e-26
0
3.20295e-30
-3.21556e-09
0
2.56236e-29
5.24772e-26
-1.60778e-09
-1.60778e-09
-1.60778e-09
-1.60778e-09
-3.21556e-09
7.63644e-37
-3.21556e-09
0
-1.60778e-09
0
0
-1.60778e-09
0
7.63644e-37
6.10915e-36
7.81971e-34
-1.60778e-09
-1.60778e-09
0
3.72873e-40
-1.60778e-09
-1.60778e-09
1.52729e-36
2.44366e-35
1.56394e-33
-1.60778e-09
0
-1.60778e-09
0
0
0
6.10915e-36
-3.21556e-09
0
-1.60778e-09
1.19319e-38
0
0
-1.60778e-09
0
0
-1.60778e-09
7.81971e-34
0
-1.60778e-09
5.96597e-39
-1.60778e-09
0
0
-1.60778e-09
-1.60778e-09
-1.60778e-09
-1.60778e-09
-1.60778e-09
-1.60778e-09
1.95493e-34
-1.60778e-09
0
0
-3.21556e-09
0
-1.60778e-09
0
0
0
0
-1.60778e-09
0
0
0
-1.60778e-09
1.90911e-37
-1.60778e-09
-1.60778e-09
1.19319e-38
0
0
2.44366e-35
-3.21556e-09
-1.60778e-09
-1.60778e-09
0
-1.60778e-09
-1.60778e-09
0
-3.21556e-09
3.90986e-34
1.22183e-35
9.54555e-38
2.38639e-38
2.98298e-39
-1.60778e-09
0
-1.60778e-09
1.56394e-33
0
0
0
-1.60778e-09
0
0
-1.60778e-09
9.32182e-41
0
0
-1.60778e-09
-1.60778e-09
-1.60778e-09
-1.60778e-09
)
;

boundaryField
{
    fuel
    {
        type            calculated;
        value           uniform 0;
    }
    primary_air
    {
        type            calculated;
        value           uniform 0;
    }
    Secondary_air_RHS
    {
        type            calculated;
        value           uniform 0;
    }
    Secondary_air_LHS
    {
        type            calculated;
        value           uniform 0;
    }
    outlet
    {
        type            calculated;
        value           uniform 0;
    }
    stove_body
    {
        type            calculated;
        value           uniform 0;
    }
    frontAndBack
    {
        type            empty;
    }
}


// ************************************************************************* //
