/*--------------------------------*- C++ -*----------------------------------*\
  =========                 |
  \\      /  F ield         | OpenFOAM: The Open Source CFD Toolbox
   \\    /   O peration     | Website:  https://openfoam.org
    \\  /    A nd           | Version:  6
     \\/     M anipulation  |
\*---------------------------------------------------------------------------*/
FoamFile
{
    version     2.0;
    format      ascii;
    class       volScalarField;
    location    "0.01";
    object      T;
}
// * * * * * * * * * * * * * * * * * * * * * * * * * * * * * * * * * * * * * //

dimensions      [0 0 0 1 0 0 0];

internalField   nonuniform List<scalar> 
297
(
292.531
292.525
292.529
294.188
294.18
294.184
292.517
292.509
292.518
290.855
290.862
290.857
292.975
292.976
292.976
290.842
290.827
290.85
289.938
289.796
289.937
292.854
292.857
292.865
289.94
289.985
289.95
293.925
290.296
293.949
294.713
291.997
294.604
293.979
290.356
293.928
299.65
296.624
299.739
294.091
293.089
294.034
299.705
296.625
299.74
303.335
295.909
303.354
292.597
303.82
292.556
303.397
295.908
303.39
293.429
302.588
293.452
301.491
302.705
301.589
293.442
302.661
293.517
301.826
306.816
301.529
301.571
305.098
301.891
301.868
306.972
301.634
310.223
311.627
310.37
312.674
313.666
312.355
310.308
311.792
310.513
288.778
294.68
288.405
287.331
302.729
287.277
288.18
294.686
289.095
287.639
294.786
287.828
284.641
302.237
284.558
287.603
294.79
287.948
289.813
295.049
289.975
285.763
302.115
285.696
289.789
295.052
290.079
307.076
309.633
307.12
310.566
312.886
310.589
307.222
309.718
307.182
310.072
312.573
310.19
313.898
314.67
313.855
310.206
312.669
310.04
313.412
314.368
313.441
315.338
312.528
315.268
313.397
314.426
313.324
305.574
305.21
305.097
308.445
307.968
307.999
305.772
305.488
305.45
307.052
306.109
305.286
310.206
309.152
308.718
307.001
306.099
305.318
311.357
307.558
305.703
314.79
312.7
309.976
311.287
307.516
305.692
305.237
305.237
305.602
307.946
307.911
308.373
305.401
305.419
305.772
305.417
306.135
307.227
308.599
309.085
310.173
305.457
306.261
307.31
305.712
307.591
311.261
309.906
312.693
314.812
305.728
307.6
311.287
305.652
305.586
305.321
308.092
308.344
308.084
305.612
305.742
305.445
304.861
305.078
304.848
307.655
308.109
308.123
304.888
305.128
304.876
304.642
304.724
304.446
307.471
307.813
308.04
304.681
304.767
304.468
304.473
304.393
304.259
308.765
308.674
308.809
304.519
304.387
304.283
300.56
300.637
300.793
306.555
307.637
307.854
300.447
300.636
300.671
292.998
293.044
293.059
293.834
294.319
294.239
293.004
293.043
293.059
305.174
305.613
305.617
308.226
308.446
308.198
305.568
305.857
305.636
304.747
305.109
305.006
308.214
308.144
307.909
304.721
305.021
304.919
304.565
304.865
304.851
308.25
307.839
307.576
304.543
304.797
304.741
304.512
304.388
304.576
308.847
308.726
308.871
304.288
304.431
304.492
300.252
300.697
300.095
307.877
307.744
306.607
300.69
300.501
300.511
293.02
293.006
292.958
294.158
294.238
293.778
293.059
293.005
292.957
)
;

boundaryField
{
    fuel
    {
        type            fixedValue;
        value           uniform 293;
    }
    primary_air
    {
        type            fixedValue;
        value           uniform 293;
    }
    Secondary_air_RHS
    {
        type            fixedValue;
        value           uniform 293;
    }
    Secondary_air_LHS
    {
        type            fixedValue;
        value           uniform 293;
    }
    outlet
    {
        type            inletOutlet;
        inletValue      uniform 293;
        value           nonuniform List<scalar> 
18
(
293
294.158
293
293
294.24
293
293
293.782
293
293
293.836
293
293
294.321
293
293
294.241
293
)
;
    }
    stove_body
    {
        type            fixedValue;
        value           uniform 293;
    }
    frontAndBack
    {
        type            empty;
    }
}


// ************************************************************************* //
