/*--------------------------------*- C++ -*----------------------------------*\
  =========                 |
  \\      /  F ield         | OpenFOAM: The Open Source CFD Toolbox
   \\    /   O peration     | Website:  https://openfoam.org
    \\  /    A nd           | Version:  6
     \\/     M anipulation  |
\*---------------------------------------------------------------------------*/
FoamFile
{
    version     2.0;
    format      ascii;
    class       volVectorField;
    location    "0.01";
    object      U;
}
// * * * * * * * * * * * * * * * * * * * * * * * * * * * * * * * * * * * * * //

dimensions      [0 1 -1 0 0 0 0];

internalField   nonuniform List<vector> 
297
(
(25.0057 -0.03285 0.206842)
(24.9933 -0.00438343 0.209217)
(25.0058 0.0285395 0.231683)
(4.80773e-08 -0.0629109 -5.25542e-05)
(-1.56174e-08 -0.0167841 0.0085934)
(9.64734e-08 0.0459699 0.0617017)
(-25.0019 -0.0332519 0.206906)
(-24.9877 -0.00511977 0.209823)
(-25.0017 0.0281979 0.231689)
(22.1674 -0.0383646 0.365834)
(22.1563 -0.000319911 0.382572)
(22.1701 0.0381297 0.399186)
(6.29479e-08 -0.0687331 -0.0222323)
(-2.40422e-08 0.00753067 0.0387307)
(1.06348e-07 0.0773094 0.0641764)
(-22.1684 -0.0384827 0.364949)
(-22.1526 -0.000699376 0.380719)
(-22.1711 0.0379005 0.397448)
(21.3353 -0.0366954 0.256713)
(21.3249 0.00638066 0.289154)
(21.3352 0.0432003 0.273161)
(1.00144e-07 -0.0547694 0.00253591)
(2.1774e-08 0.0193 0.0684049)
(1.4229e-07 0.0750463 0.0270551)
(-21.3355 -0.0371024 0.257615)
(-21.3388 0.00683437 0.290093)
(-21.3362 0.044053 0.273407)
(21.4152 10.0127 -0.65866)
(21.1315 -0.164401 -5.87882)
(21.4073 -9.61457 -0.939939)
(0.000183113 1.79394 1.9731)
(7.42999e-05 -0.26819 -6.45314)
(6.96672e-06 -1.91862 1.78845)
(-21.4181 10.0759 -0.730167)
(-21.1352 0.079753 -5.93726)
(-21.4049 -9.40405 -0.907833)
(21.902 19.2802 21.0433)
(21.7383 2.66447 36.0388)
(21.9023 -18.2799 20.5294)
(0.000816816 28.8386 81.282)
(-0.000113783 -2.45466 66.4672)
(-0.00103974 -29.5876 79.9847)
(-21.9039 19.1566 20.9517)
(-21.7387 1.93762 36.1587)
(-21.9055 -18.442 20.7169)
(21.5634 3.57628 -6.55997)
(21.8426 0.611804 54.3776)
(21.5506 -2.27399 -4.23691)
(-0.000680295 -17.7748 121.877)
(-7.48966e-05 -1.00294 -8.54673)
(0.000377058 17.8066 121.392)
(-21.569 3.12634 -6.65475)
(-21.8424 1.63562 54.5345)
(-21.5527 -2.74915 -4.27233)
(21.8221 -17.0801 -123.442)
(21.7491 -0.972994 -16.3351)
(21.8333 18.0488 -121.629)
(0.000494177 -3.31692 18.0586)
(0.000107053 -0.18422 -81.8596)
(-0.000278549 4.27117 19.5506)
(-21.8216 -17.0907 -123.697)
(-21.754 -1.50045 -16.3963)
(-21.8391 18.0511 -121.443)
(22.1476 41.6298 -81.7321)
(22.2931 -2.66016 -77.1896)
(22.126 -39.5976 -79.7572)
(0.000460038 18.8461 -32.3186)
(0.00011575 2.52226 -61.4645)
(-0.000124988 -17.0794 -30.5873)
(-22.1494 42.0607 -81.8607)
(-22.304 -3.56645 -77.1547)
(-22.1339 -39.0664 -79.6583)
(22.7699 38.4879 -25.9645)
(22.8211 -3.06389 -19.0734)
(22.7812 -37.4833 -25.6035)
(-0.000315917 29.3866 -24.4617)
(-9.83977e-05 1.85794 -21.2189)
(0.00037954 -28.0106 -22.1335)
(-22.7779 38.7715 -25.7336)
(-22.8337 -4.36605 -19.1478)
(-22.7896 -36.9147 -25.8099)
(16.0779 3.91459 -183.017)
(21.019 -0.103364 75.25)
(16.0859 -3.32813 -181.094)
(-0.00805449 -9.36772 169.68)
(-0.000175105 -0.484024 -101.191)
(0.00764555 9.20285 169.71)
(-16.0533 3.66558 -183.469)
(-21.0177 -0.186741 75.2796)
(-16.1142 -3.59144 -180.744)
(16.8513 -1.92358 -186.181)
(19.0611 -0.181126 74.7024)
(16.8719 2.6058 -184.335)
(-0.00632545 -3.98685 189.213)
(-0.00017437 -0.459437 -104.056)
(0.00612265 3.83546 189.543)
(-16.8561 -2.08265 -186.665)
(-19.0654 -0.381158 74.7358)
(-16.8702 2.43436 -183.945)
(20.6311 -8.2548 -168.001)
(19.2372 -0.251273 71.9508)
(20.6314 9.03854 -166.185)
(-0.00444372 1.29671 185.636)
(-0.000187497 -0.433981 -104.52)
(0.00441258 -1.42391 185.999)
(-20.6545 -8.3125 -168.41)
(-19.2417 -0.569537 71.9783)
(-20.6156 8.97103 -165.855)
(22.2795 49.3537 -15.4052)
(22.5906 1.02038 -14.1564)
(22.2869 -49.2397 -15.2943)
(-0.000858209 35.5009 -14.5957)
(-0.000310124 -1.18151 -11.5414)
(0.000632198 -35.4234 -14.2989)
(-22.2915 49.3353 -15.3566)
(-22.5989 4.93999 -14.1472)
(-22.2921 -48.9512 -15.3508)
(22.7177 25.8154 -2.74084)
(22.9577 -1.15038 2.75315)
(22.7296 -25.6397 -2.74107)
(-0.00069157 16.4294 -4.87344)
(-0.000296975 -0.175951 -2.65022)
(0.00037244 -16.3817 -4.75091)
(-22.7301 25.2762 -3.10102)
(-22.9667 0.897477 2.89761)
(-22.7183 -25.6375 -2.413)
(23.0146 1.75791 -1.56024)
(23.0979 -0.103402 7.23488)
(23.0172 -1.29238 -1.47514)
(-0.000562268 4.2292 -7.89785)
(-0.00025161 0.0594987 -0.629231)
(0.00023307 -4.10452 -7.87088)
(-23.0124 1.36 -1.45967)
(-23.1028 -0.0943903 7.26607)
(-23.0108 -1.70213 -1.47557)
(22.1716 -52.3582 -8.18851)
(22.3761 -45.6119 -10.8265)
(22.2993 -36.9143 -11.8852)
(-0.000216768 -40.3929 -7.51623)
(-0.000405409 -37.2873 -6.95306)
(-0.000550762 -30.9477 -6.90481)
(-22.1882 -52.0381 -8.16648)
(-22.3975 -45.5088 -10.8134)
(-22.3267 -36.8786 -11.8652)
(22.3918 -35.0419 -1.16018)
(22.4705 -34.5608 -9.25882)
(22.2541 -31.0143 -15.1894)
(-0.00023707 -29.5262 1.05838)
(-0.000329335 -29.743 1.49461)
(-0.000380676 -25.8304 2.76879)
(-22.3909 -34.7597 -1.09808)
(-22.4707 -34.223 -9.14198)
(-22.26 -30.8615 -15.1695)
(22.8534 -0.311482 0.303752)
(22.5304 -16.9237 -16.9864)
(22.1485 -25.8934 -22.0158)
(-0.000205546 -6.16905 -1.0196)
(-0.000202119 -9.93762 3.45844)
(-0.000130016 -14.5796 3.77085)
(-22.8516 0.0160298 0.544657)
(-22.5311 -16.5133 -16.7806)
(-22.15 -25.7547 -22.0549)
(22.3117 36.7209 -11.8544)
(22.3791 45.5113 -10.7597)
(22.1749 52.2912 -8.22227)
(-0.000216972 30.6981 -6.86572)
(-0.000292254 37.1387 -7.01468)
(-0.000324527 40.4744 -7.55394)
(-22.3244 36.8003 -11.8862)
(-22.3933 45.5309 -10.7695)
(-22.1874 52.3859 -8.23956)
(22.2677 30.641 -15.1425)
(22.4748 34.3659 -9.06421)
(22.405 34.7866 -1.07265)
(-0.000208442 25.4091 2.92921)
(-0.000267311 29.5253 1.61973)
(-0.000312084 29.5141 1.10175)
(-22.271 30.672 -15.1748)
(-22.4848 34.5108 -9.03697)
(-22.4116 34.9193 -1.1083)
(22.1553 25.3522 -22.0823)
(22.5365 16.5689 -16.9855)
(22.8452 0.11399 0.285365)
(-0.000205772 14.116 3.69916)
(-0.000271116 9.65639 3.31703)
(-0.000325451 6.14824 -1.1218)
(-22.1565 25.4141 -22.1286)
(-22.5383 16.5441 -16.8905)
(-22.848 0.347049 0.356106)
(22.1872 12.1042 -19.7414)
(22.1983 17.7042 -14.4419)
(22.2732 26.1012 -15.3892)
(0.00014364 8.9718 -9.8304)
(0.000111812 15.0968 -5.80503)
(-2.77579e-05 20.5095 -6.69974)
(-22.1835 12.0981 -19.7521)
(-22.2092 17.7143 -14.4512)
(-22.2822 26.1321 -15.4087)
(22.1733 4.668 -27.8648)
(22.1985 13.3189 -19.3406)
(22.2287 23.7808 -23.2387)
(0.000134915 6.8453 -6.74103)
(0.000126698 11.1924 -0.423189)
(3.52892e-05 18.0796 0.264568)
(-22.1746 4.64218 -27.8528)
(-22.2012 13.321 -19.3129)
(-22.2301 23.7938 -23.2508)
(22.3961 3.94145 -34.6091)
(22.2539 12.9892 -30.3297)
(22.2016 16.5339 -35.3446)
(0.000135223 5.49788 -11.7875)
(0.000137108 9.99611 -5.06346)
(5.91715e-05 15.3825 0.709048)
(-22.3985 3.90556 -34.5876)
(-22.2548 12.9524 -30.3234)
(-22.2007 16.5196 -35.4194)
(22.2981 -5.69211 -52.1858)
(22.2677 -2.15245 -49.7969)
(22.2937 -10.2357 -55.0662)
(9.45665e-05 -6.93796 13.5473)
(0.00010305 2.07143 23.8142)
(0.000105309 -6.19999 16.4393)
(-22.3012 -5.68102 -52.1058)
(-22.2669 -2.15246 -49.7645)
(-22.2952 -10.2385 -55.1576)
(21.8822 2.79056 -120.125)
(21.8775 -1.37188 -120.624)
(21.8848 4.38659 -117.022)
(-4.64241e-05 -4.28661 66.3198)
(-6.51983e-05 0.745186 70.6235)
(-7.27272e-05 0.0930926 63.9693)
(-21.874 2.79249 -120.112)
(-21.8775 -1.35898 -120.615)
(-21.8761 4.37954 -117.003)
(20.8245 -0.107928 -154.939)
(20.8264 -0.111801 -154.885)
(20.8276 -0.172787 -154.548)
(-3.23301e-05 -1.395 182.077)
(-1.53494e-05 0.436859 179.981)
(-1.07387e-05 -0.0155779 178.613)
(-20.8249 -0.107488 -154.932)
(-20.8264 -0.111654 -154.885)
(-20.8275 -0.171397 -154.543)
(22.2592 -26.4626 -15.3696)
(22.196 -17.9231 -14.5281)
(22.1812 -12.1924 -19.8253)
(-0.000674408 -20.7416 -6.73076)
(-0.000826132 -15.0981 -5.89084)
(-0.000912286 -9.18505 -9.83483)
(-22.29 -26.3064 -15.3139)
(-22.2163 -17.884 -14.5244)
(-22.1855 -12.1704 -19.7735)
(22.2181 -24.1975 -23.4447)
(22.1986 -13.5277 -19.5538)
(22.1805 -4.74826 -28.1121)
(-0.000625165 -18.3789 -0.0444358)
(-0.000792555 -11.329 -0.685204)
(-0.000817264 -6.89975 -6.99036)
(-22.2207 -23.894 -23.3124)
(-22.1939 -13.4035 -19.4531)
(-22.1768 -4.72641 -28.0111)
(22.1825 -16.9038 -35.8825)
(22.2596 -13.1739 -30.6188)
(22.41 -4.0024 -34.9642)
(-0.000572969 -15.826 0.0477198)
(-0.000757336 -10.1816 -5.47355)
(-0.000713251 -5.54694 -12.1201)
(-22.1912 -16.8759 -35.7466)
(-22.2643 -12.7794 -30.5331)
(-22.4032 -3.96913 -34.8377)
(22.3066 10.2436 -55.2075)
(22.2666 2.15823 -49.5312)
(22.304 5.67703 -52.0685)
(1.72353e-05 6.17072 16.3638)
(-6.59848e-06 -2.06638 23.8497)
(-7.27297e-05 6.89323 13.6319)
(-22.2906 10.2453 -55.0147)
(-22.2701 2.05231 -49.7409)
(-22.298 5.70504 -51.8856)
(21.8448 -4.41273 -116.847)
(21.8823 1.34959 -120.377)
(21.8483 -2.77443 -119.92)
(0.000185226 -0.10991 64.2465)
(0.00019297 -0.738417 70.8148)
(0.000216689 4.26635 66.5162)
(-21.8763 -4.38322 -116.743)
(-21.8676 1.361 -120.389)
(-21.878 -2.80056 -119.824)
(20.8263 0.167206 -154.585)
(20.8253 0.112049 -154.941)
(20.8226 0.108341 -154.968)
(0.000356307 0.0173333 178.561)
(0.00035303 -0.426929 179.88)
(0.000356029 1.39369 181.992)
(-20.8284 0.171394 -154.568)
(-20.8241 0.112022 -154.901)
(-20.8219 0.106418 -154.957)
)
;

boundaryField
{
    fuel
    {
        type            fixedValue;
        value           uniform (0 0 0.25);
    }
    primary_air
    {
        type            fixedValue;
        value           uniform (0 0 2.5);
    }
    Secondary_air_RHS
    {
        type            fixedValue;
        value           uniform (0 150 0);
    }
    Secondary_air_LHS
    {
        type            fixedValue;
        value           uniform (0 -150 0);
    }
    outlet
    {
        type            pressureInletOutletVelocity;
        value           nonuniform List<vector> 
18
(
(0 0 -154.585)
(0.000356307 0.0173333 178.561)
(0 0 -154.568)
(0 0 -154.941)
(0.00035303 -0.426929 179.88)
(0 0 -154.901)
(0 0 -154.968)
(0.000356029 1.39369 181.992)
(0 0 -154.957)
(0 0 -154.939)
(-3.23301e-05 -1.395 182.077)
(0 0 -154.932)
(0 0 -154.885)
(-1.53494e-05 0.436859 179.981)
(0 0 -154.885)
(0 0 -154.548)
(-1.07387e-05 -0.0155779 178.613)
(0 0 -154.543)
)
;
    }
    stove_body
    {
        type            noSlip;
    }
    frontAndBack
    {
        type            empty;
    }
}


// ************************************************************************* //
