/*--------------------------------*- C++ -*----------------------------------*\
  =========                 |
  \\      /  F ield         | OpenFOAM: The Open Source CFD Toolbox
   \\    /   O peration     | Website:  https://openfoam.org
    \\  /    A nd           | Version:  6
     \\/     M anipulation  |
\*---------------------------------------------------------------------------*/
FoamFile
{
    version     2.0;
    format      ascii;
    class       volScalarField;
    location    "0.03";
    object      O2;
}
// * * * * * * * * * * * * * * * * * * * * * * * * * * * * * * * * * * * * * //

dimensions      [0 0 0 0 0 0 0];

internalField   nonuniform List<scalar> 
297
(
0
0
0
0
0
0
0
0
0
0
0
0
0
0
0
0
0
0
0
0
0
0
0
0
0
0
0
0.0335506
0.0825743
0.0430335
0.0712058
0.0990876
0.075743
0.0336517
0.0827087
0.0431672
0
0.0125413
0
0.0204898
0.0650922
0.0261177
0
0.012506
0
0
0.0110371
0
0.0153962
0.0151179
0.0186581
0
0.0109891
0
0.00227267
0.00661609
0.00221819
0
0.000919062
0
0.00226788
0.00658657
0.00220397
0
4.34008e-08
0
0
0
0
0
4.29894e-08
0
3.81402e-14
1.73465e-13
0
0
1.03776e-12
0
1.63328e-15
1.73066e-13
0
0
0.0110388
0
0
0.000942247
0
0
0.0109909
0
0
0.0110004
0
0
0.000919884
0
0
0.0109526
0
0
0.0109296
0
0
0.000919744
0
0
0.0108823
0
1.11902e-17
4.26614e-17
1.02275e-17
1.82213e-17
2.69294e-16
1.31402e-17
1.2388e-17
5.22987e-17
1.90184e-17
2.75803e-17
4.04758e-17
3.24843e-17
3.77157e-17
9.27637e-16
2.88721e-17
4.16667e-17
6.50012e-17
5.30885e-17
2.38578e-16
9.05827e-16
2.1982e-16
8.99984e-17
1.35669e-15
6.97726e-17
3.10738e-16
1.38671e-15
3.6392e-16
2.01624e-22
1.29997e-26
1.68867e-30
1.70053e-22
2.95907e-27
3.06882e-31
3.25338e-22
2.15828e-26
3.42196e-30
7.78049e-22
1.92913e-25
1.31998e-29
2.79814e-22
4.45904e-26
8.84667e-31
1.3094e-21
3.26075e-25
2.03066e-29
1.93995e-20
9.05213e-25
2.07266e-29
2.48129e-21
5.57308e-26
3.57852e-30
3.23249e-20
1.52029e-24
3.47559e-29
2.17304e-30
8.15394e-27
2.61063e-22
5.76274e-31
2.88163e-27
2.24923e-22
8.08414e-30
1.32151e-26
2.84919e-22
1.3395e-29
2.31173e-25
1.57915e-21
1.04989e-30
5.74603e-26
3.61816e-22
2.9227e-29
4.56608e-25
2.17266e-21
2.2378e-29
9.73522e-25
2.07429e-20
4.39017e-30
7.26579e-26
2.97264e-21
4.7395e-29
2.08994e-24
2.72512e-20
3.9265e-36
5.38341e-36
2.52096e-34
1.14607e-33
1.50213e-32
1.53699e-32
7.01046e-35
8.98856e-35
9.57935e-34
5.19592e-36
1.56641e-35
5.76116e-34
1.146e-33
9.9919e-32
1.25506e-31
4.68003e-35
7.50114e-35
1.48514e-33
5.56613e-36
2.02017e-35
4.7994e-34
1.07129e-33
4.13154e-31
5.28787e-31
4.17817e-35
7.66681e-35
1.0993e-33
6.75721e-36
3.29687e-35
5.45156e-35
1.5611e-33
1.05924e-30
2.14975e-30
3.85462e-35
9.26538e-35
1.49156e-34
6.54655e-36
2.78252e-35
4.73463e-35
5.81439e-31
2.08391e-30
3.64102e-30
6.5143e-36
4.07466e-35
4.09246e-35
1.49928e-36
9.77608e-36
1.66828e-35
3.83502e-31
1.37055e-30
2.3437e-30
2.72468e-36
9.76941e-36
1.66852e-35
1.31497e-34
1.06619e-35
6.59318e-36
2.13827e-32
2.09618e-32
1.42289e-33
6.86868e-34
1.03318e-34
6.91433e-35
4.97455e-34
2.61499e-35
8.64583e-36
1.68552e-31
1.34122e-31
1.4382e-33
1.14944e-33
1.03449e-34
4.57369e-35
3.48635e-34
3.44111e-35
9.16513e-36
7.09675e-31
5.6275e-31
1.35161e-33
9.12407e-34
1.07327e-34
4.07344e-35
9.64953e-35
4.54334e-35
1.12415e-35
2.84275e-30
1.43243e-30
1.96499e-33
1.9885e-34
1.45045e-34
3.75873e-35
9.14393e-35
4.19097e-35
5.05063e-36
4.88925e-30
3.1184e-30
5.49125e-31
5.47238e-35
3.50724e-35
6.26294e-36
2.25425e-35
1.45895e-35
1.49835e-36
3.17452e-30
2.05964e-30
3.74726e-31
2.25377e-35
1.46232e-35
2.65343e-36
)
;

boundaryField
{
    fuel
    {
        type            fixedValue;
        value           uniform 0;
    }
    primary_air
    {
        type            fixedValue;
        value           uniform 0.23;
    }
    Secondary_air_RHS
    {
        type            fixedValue;
        value           uniform 0.23;
    }
    Secondary_air_LHS
    {
        type            fixedValue;
        value           uniform 0.23;
    }
    outlet
    {
        type            inletOutlet;
        inletValue      uniform 0;
        value           nonuniform List<scalar> 
18
(
0
3.17452e-30
0
0
2.05964e-30
0
0
3.74726e-31
0
0
3.83502e-31
0
0
1.37055e-30
0
0
2.3437e-30
0
)
;
    }
    stove_body
    {
        type            fixedValue;
        value           uniform 0;
    }
    frontAndBack
    {
        type            empty;
    }
}


// ************************************************************************* //
