/*--------------------------------*- C++ -*----------------------------------*\
  =========                 |
  \\      /  F ield         | OpenFOAM: The Open Source CFD Toolbox
   \\    /   O peration     | Website:  https://openfoam.org
    \\  /    A nd           | Version:  6
     \\/     M anipulation  |
\*---------------------------------------------------------------------------*/
FoamFile
{
    version     2.0;
    format      ascii;
    class       volScalarField;
    location    "0.03";
    object      p;
}
// * * * * * * * * * * * * * * * * * * * * * * * * * * * * * * * * * * * * * //

dimensions      [1 -1 -2 0 0 0 0];

internalField   nonuniform List<scalar> 
297
(
97730.2
97730.2
97730.2
162692
162692
162692
97730.1
97730.1
97730.1
97730.1
97730.1
97730.1
162692
162692
162692
97730
97729.9
97729.9
97730
97730
97730
162692
162692
162692
97729.9
97729.9
97729.9
96795.4
96801.2
96786.8
160686
160733
160720
96792.7
96800.5
96787.7
97071.1
96566
96944.4
160562
160988
160530
97085
96567.5
96936.2
93558.9
93564.3
93833.4
150392
156022
150759
93569
93564.4
93825.9
90164.5
93419.8
89833
153888
153582
153572
90153
93417.1
89841.8
95820.6
96205.6
95636.6
159758
159201
159774
95808.5
96207.9
95644.2
95762.1
96201
95694
159132
159851
159476
95742.3
96202.6
95703.2
70284
91436.8
70915.7
115311
148686
115592
70198.8
91425.7
70990.6
68788.1
91288.1
69366.2
111354
148091
111540
68708.4
91276.5
69436.9
71079.5
91428.3
71533.2
114226
148430
114277
71020.7
91417.2
71585
96550
96701.1
96524
160214
160475
160258
96541.4
96699
96525.1
96673.8
96701.9
96645.1
160539
160609
160537
96668.3
96698.3
96643.6
96676.7
96690.1
96649.4
160689
160676
160666
96671.3
96686.9
96648.1
96810.2
97048.7
97627.6
160481
160608
160871
96807.7
97042
97607.6
96677.2
96750.8
97148.4
160530
160539
160616
96677
96750.3
97138.2
96553.1
96413.2
96328.9
160658
160570
160456
96555.4
96418.8
96335.6
97614.4
97062
96831.6
160908
160644
160504
97618.2
97060
96827
97155.9
96777.9
96705.1
160659
160580
160562
97155.9
96772.9
96699.9
96372.5
96453.6
96586.7
160502
160612
160693
96364.4
96445.6
96580
98829.4
98605.3
98200.8
161919
161731
161353
98835.2
98611.3
98207.7
98520.3
98254.6
97816
161555
161366
161005
98525.9
98261.2
97823.3
98126.6
97848.2
97327.9
161089
160861
160596
98132.5
97854.3
97331.9
96192.8
96099.1
95929.7
158910
158795
158686
96197.3
96103.7
95934.7
90244.3
90283.2
90336.9
149144
149143
149140
90244.1
90283.1
90336.5
82836.7
82837.8
82840.3
132729
132726
132715
82830
82831.1
82833.3
98241.7
98664.8
98903.3
161330
161722
161918
98207.2
98617.8
98845.2
97843.7
98298.5
98577
160970
161343
161541
97814.7
98261
98529.5
97333.7
97875.6
98167.2
160548
160821
161060
97313
97843.6
98126.3
95892.3
96063.3
96159.1
158584
158694
158813
95880.4
96052.3
96147.5
90220.2
90166.7
90126
148938
148941
148942
90223
90168.7
90129.1
82665.4
82663.4
82661
132467
132478
132483
82687.9
82685.6
82684.6
)
;

boundaryField
{
    fuel
    {
        type            zeroGradient;
    }
    primary_air
    {
        type            zeroGradient;
    }
    Secondary_air_RHS
    {
        type            zeroGradient;
    }
    Secondary_air_LHS
    {
        type            zeroGradient;
    }
    outlet
    {
        type            totalPressure;
        rho             rho;
        psi             none;
        gamma           1;
        p0              uniform 100000;
        value           nonuniform List<scalar> 
18
(
86336
100000
86327.8
86260.9
100000
86279.2
86278.6
100000
86262.5
86393.1
100000
86394
86406.2
100000
86403.2
86453.4
100000
86457.9
)
;
    }
    stove_body
    {
        type            zeroGradient;
    }
    frontAndBack
    {
        type            empty;
    }
}


// ************************************************************************* //
