/*--------------------------------*- C++ -*----------------------------------*\
  =========                 |
  \\      /  F ield         | OpenFOAM: The Open Source CFD Toolbox
   \\    /   O peration     | Website:  https://openfoam.org
    \\  /    A nd           | Version:  6
     \\/     M anipulation  |
\*---------------------------------------------------------------------------*/
FoamFile
{
    version     2.0;
    format      ascii;
    class       surfaceScalarField;
    location    "0.03";
    object      phi;
}
// * * * * * * * * * * * * * * * * * * * * * * * * * * * * * * * * * * * * * //

dimensions      [1 0 -1 0 0 0 0];

internalField   nonuniform List<scalar> 
675
(
-4.57474e-07
-0.000148187
0.000254745
1.2903e-06
-0.000151442
0.000256159
-0.000149006
0.000256256
5.28426e-06
0.000148308
-0.000139607
-3.10608e-06
0.000149614
-0.000129765
0.000148816
-0.000138655
-1.0844e-07
0.00025449
1.08969e-06
0.000254678
0.000255853
2.74928e-07
1.05717e-05
0.000274945
-1.05362e-06
1.09987e-05
0.000278576
9.74392e-06
0.000276749
3.01208e-06
-1.02556e-05
-0.000142237
-7.30841e-07
-9.96433e-06
-0.000125483
-9.68497e-06
-0.000140585
4.29021e-07
0.000274763
-1.17518e-06
0.000277344
0.000276141
-1.49212e-06
0.0001623
-3.14134e-07
0.000162535
0.000162314
-6.32508e-06
-0.000162057
4.68882e-06
-0.000161849
-0.000161997
-1.42317e-06
-3.3365e-08
0.0108444
0.0115093
-0.0191627
-0.00420906
0.0120884
0.00615858
0.0122131
-0.0132447
0.00798674
-0.0114436
0.020275
-0.00393227
-0.0120864
0.0414138
-0.0122605
0.0258386
0.0108481
-0.0191009
-0.00410054
0.00605554
-0.013184
0.0371314
0.0270189
-0.0833092
-0.0350583
-0.0130678
0.0914245
0.0267844
-0.0750822
0.0166352
-0.0273513
0.0580332
-0.0174956
0.013048
0.0494612
-0.0265406
0.0616778
0.0365421
-0.0829911
-0.0355613
0.0912151
-0.0752814
0.00612451
0.0630461
-0.15247
-0.00646033
0.00228532
0.101735
0.0647207
-0.146261
-0.114291
-0.0630805
0.298468
0.113052
-0.00224258
-0.173341
-0.0646995
0.304157
0.00659719
-0.15266
-0.00612921
0.10171
-0.146108
-0.0639611
-0.0698265
-0.049262
0.183049
0.0607034
0.0144247
-0.0544752
-0.0846036
-0.0723421
-0.0444662
0.177524
0.00706691
0.0700002
0.0944632
-0.241348
0.00316306
-0.0143884
-0.17097
0.203696
0.0722221
0.10707
-0.248454
-0.0641197
-0.0489664
0.183085
0.0605743
-0.0545006
-0.0845715
-0.0446962
0.177504
0.00640115
-0.0274731
-0.0281896
-0.0203811
0.0115933
-0.0392781
-0.0382355
-0.0266053
0.0557111
0.0280767
-0.0167842
-0.0435851
-0.011601
-0.0484645
0.037986
-0.012718
0.00696776
-0.0278577
-0.0198556
-0.0392704
-0.0265596
-0.00731376
0.00350347
-0.0243712
-0.0210891
9.92448e-05
-0.0255952
-0.0229495
-0.0247437
0.0307299
-0.00308077
-0.0409101
0.0229742
-0.000148057
-0.0404421
0.0221674
-0.0348401
-0.00644681
-0.0244907
-0.0202777
-0.0255779
-0.0246621
-0.00222836
-0.00148986
-0.162619
0.00223197
0.000397835
0.0968778
-0.0014082
-0.156613
-0.00679557
0.00149877
0.279525
0.00718896
-0.000392006
-0.186535
0.00139996
0.285731
-0.0022471
-0.162763
0.00220668
0.0968651
-0.156508
-0.00211854
-0.000556608
-0.173515
0.00207999
-0.000568539
0.0932487
-0.000482105
-0.167737
-0.00308108
0.000562817
0.259517
0.00341047
0.000568272
-0.194163
0.000476582
0.266176
-0.00214056
-0.173616
0.00206028
0.0932334
-0.167672
-0.00491483
0.00042523
0.00482288
-0.0010917
0.000496393
-0.00351982
-0.000422418
0.00383036
0.00109158
-0.000498413
-0.00496475
0.00478968
0.00877463
-0.00195753
-0.0106594
-0.0205269
-0.00894655
-0.00131781
-0.00655541
-0.00234367
-0.0104171
-0.0209305
0.00863094
0.00200312
-0.026874
-0.026625
-0.0118456
0.0013898
-0.022669
0.00230822
-0.0246913
-0.0266422
0.00893161
-0.0108281
-0.0205924
-0.00870198
-0.00655154
-0.0103508
-0.020704
0.00478513
0.000271444
-0.00155464
-0.0141604
-0.0062992
0.00169693
0.00283217
-0.000139403
-0.0020607
-0.0145154
0.00508836
-0.000183951
-0.0121994
-0.0193036
-0.00540407
-0.00167233
-0.00880583
0.000122409
-0.0108421
-0.0195109
0.00487325
-0.00166262
-0.0142209
-0.0061485
0.00279801
-0.0020073
-0.0143691
-0.000220156
0.00164504
-0.00297836
0.000185457
0.00242517
0.00139741
-0.00327088
0.00147179
-0.00159214
-0.0104288
-0.00250156
-0.00240784
-0.00140067
-0.0105401
-0.000161156
-0.0030922
0.000227887
-0.00317861
-0.0190298
-0.000574864
-0.00132552
-0.0196631
0.00222775
-0.00159404
0.00271122
-0.00685933
-0.0155145
-0.0257237
0.000563597
-0.00205576
-0.0226534
-0.00221659
0.00137536
-0.00268899
0.00313964
-0.0203914
-0.0188123
-0.0013277
-0.0194222
-0.0016064
-0.00679748
-0.0153134
-0.0144687
-0.000655702
-0.000716201
-0.0146068
0.0014934
-0.00294901
0.000215414
-0.00765657
-0.0140244
-0.021584
0.000644378
-0.00128167
-0.0178974
-0.00149269
0.000675831
-0.000234468
0.00395646
-0.0182633
-0.0143381
-0.000713895
-0.0144799
-0.00295678
-0.00758895
-0.0139224
-0.00408524
9.839e-05
-0.00664285
-0.000391141
-0.00205794
-0.0122408
-0.0116136
-0.000108182
-0.0117061
0.000378647
0.00204206
-0.0118482
-0.00400018
-0.00657778
-0.0121238
0.0192229
0.00266135
-0.0067178
-0.0151661
0.0186416
0.00221092
-0.0016292
-0.000532505
-0.00135251
0.0223508
-0.00266574
0.00304685
-0.0200691
0.025406
-0.00220685
0.00136368
0.000543464
-0.00229404
0.0192902
-0.00676349
-0.0151922
0.0186894
-0.00160583
-0.0013594
0.01433
0.000238466
-0.00748472
-0.0138009
0.0141899
0.00150096
-0.00298962
-0.00056954
-0.000753116
0.0176731
-0.000209854
0.00386298
-0.0180399
0.0213704
-0.00148981
0.000658238
0.000606243
-0.00140187
0.0143878
-0.00753678
-0.013824
0.0142539
-0.0029615
-0.000719772
0.0065442
-0.00201769
-0.0120103
0.00388112
-0.000326016
0.000150023
0.0115595
0.00203316
-0.0117462
0.0115482
0.000344847
-0.000130818
0.0065584
-0.0120613
0.00394226
0.00661161
0.00220031
-0.00881129
0.0102251
0.0019609
-0.00557394
0.0022765
-0.00721708
0.00938528
-0.00220455
-0.00497931
0.0151585
-0.00196417
-0.00184703
-0.00228042
-0.000352693
0.00661493
-0.00881845
0.0102065
-0.00555478
-0.00726572
0.00494073
0.00190684
-0.0156581
0.00920525
0.00177987
-0.0116177
0.00124492
-0.013057
0.0070564
-0.0019098
-0.00821792
0.0133259
-0.00177071
-0.00456481
-0.00119638
-0.00262448
0.00495159
-0.0156791
0.00919189
-0.0115651
-0.0130936
0.00597664
0.0040825
-0.0257165
0.0065293
0.00204765
-0.0142173
0.000891304
-0.0194286
0.0076996
-0.0040913
-0.00774247
0.0123142
-0.00205815
-0.00507254
-0.000870701
-0.000293523
0.00595859
-0.025728
0.00650469
-0.0141688
-0.0195202
-0.00719202
0.0130884
-0.0316094
-0.00118573
0.0110608
-0.0312809
0.0107921
-0.031403
0.00177343
-0.0131189
0.0166956
-0.00230901
-0.0110794
0.0211545
-0.0108115
0.0190053
-0.00718091
-0.0316627
-0.00119069
-0.031235
-0.0315192
0.000203343
0.00563647
-0.037446
0.000728903
0.00571808
-0.0375214
0.0063469
-0.0370178
-0.00289232
-0.00563013
0.0308579
-0.00186947
-0.00570686
0.031559
-0.00633274
0.0298182
0.000194478
-0.0374841
0.000767332
-0.0375116
-0.0370812
-9.87507e-05
0.0177433
-0.000264516
0.017714
0.01771
-0.000530624
-0.0177114
0.000182798
-0.0176928
-0.0176685
-0.00010601
-0.000235498
-0.0104434
0.00232271
-0.00739319
-0.00680867
0.00199161
-0.00562564
0.00224886
-0.00905666
-0.0154404
-0.00228859
-0.000338763
-0.00957916
-0.00196373
-0.00190477
-0.0022228
-0.00510641
-0.0102958
-0.00730564
-0.00665715
-0.00560131
-0.00887921
-0.00932085
0.00119398
-0.0132901
-0.00508871
0.00178626
-0.0116432
0.00194849
-0.0160929
-0.0135362
-0.00123871
-0.00263221
-0.00719268
-0.00179548
-0.0046654
-0.0019269
-0.00842242
-0.00927461
-0.0131921
-0.00498084
-0.0116905
-0.0157867
-0.00657132
0.000865114
-0.019824
-0.00609922
0.00208019
-0.0141947
0.00417695
-0.0263681
-0.0124923
-0.000894315
-0.000227422
-0.00784062
-0.00208222
-0.00515356
-0.00410846
-0.0079763
-0.00656982
-0.0196396
-0.00600747
-0.0143347
-0.0259017
0.00132083
0.010908
-0.03205
0.0073117
0.0111615
-0.0313441
0.0132835
-0.032337
0.00245594
-0.0108815
0.01911
-0.00176165
-0.0111766
0.0214062
-0.0132162
0.0167657
0.00118043
-0.0316981
0.00722996
-0.0315574
-0.0318844
-0.000862462
0.00630711
-0.0374902
-0.000109892
0.0056625
-0.0377554
0.00554593
-0.0379885
0.00195563
-0.00636182
0.0298272
0.00315649
-0.00573166
0.0316031
-0.00565657
0.0311292
-0.00073106
-0.0373249
-0.00020108
-0.0378151
-0.0377383
0.00019609
0.0175089
0.00019458
0.017564
0.0174943
-0.000256376
-0.0176306
0.000491627
-0.0176369
-0.0176617
0.00025215
8.66906e-05
)
;

boundaryField
{
    fuel
    {
        type            calculated;
        value           nonuniform List<scalar> 
36
(
0.000103491
0.000172281
0.00010349
0.000103491
0.000172281
0.00010349
0.000103491
0.000172281
0.00010349
-0.000103491
-0.000172281
-0.000103491
-0.000103491
-0.000172281
-0.000103491
-0.000103491
-0.000172281
-0.000103491
0
0
0
0
0
0
0
0
0
0
0
0
0
0
0
0
0
0
)
;
    }
    primary_air
    {
        type            calculated;
        value           nonuniform List<scalar> 9(-0.00318301 -0.005284 -0.00318293 -0.00318321 -0.00528554 -0.00318318 -0.00318273 -0.00528512 -0.00318276);
    }
    Secondary_air_RHS
    {
        type            calculated;
        value           nonuniform List<scalar> 9(0.0139919 0.0228067 0.0140067 0.0136862 0.0220072 0.0137001 0.0141138 0.0225472 0.014124);
    }
    Secondary_air_LHS
    {
        type            calculated;
        value           nonuniform List<scalar> 9(0.0138673 0.0227514 0.0138505 0.0135721 0.0219706 0.0135564 0.0140242 0.0225372 0.0140126);
    }
    outlet
    {
        type            calculated;
        value           nonuniform List<scalar> 
18
(
-0.0551928
0.0652253
-0.0552051
-0.0553155
0.0660579
-0.0552841
-0.0552857
0.0667792
-0.0553109
-0.0550884
0.0668449
-0.0550873
-0.0550675
0.0662537
-0.0550728
-0.0549902
0.0653809
-0.0549831
)
;
    }
    stove_body
    {
        type            calculated;
        value           uniform 0;
    }
    frontAndBack
    {
        type            empty;
        value           nonuniform 0();
    }
}


// ************************************************************************* //
