/*--------------------------------*- C++ -*----------------------------------*\
  =========                 |
  \\      /  F ield         | OpenFOAM: The Open Source CFD Toolbox
   \\    /   O peration     | Website:  https://openfoam.org
    \\  /    A nd           | Version:  6
     \\/     M anipulation  |
\*---------------------------------------------------------------------------*/
FoamFile
{
    version     2.0;
    format      ascii;
    class       volScalarField;
    location    "0.03";
    object      T;
}
// * * * * * * * * * * * * * * * * * * * * * * * * * * * * * * * * * * * * * //

dimensions      [0 0 0 1 0 0 0];

internalField   nonuniform List<scalar> 
297
(
298.933
298.934
298.931
300.037
300.023
300.036
298.932
298.946
298.931
300.773
300.87
300.767
303.88
303.867
303.886
300.763
300.762
300.758
304.72
304.242
304.72
307.222
307.437
307.235
304.713
304.772
304.723
302.05
299.723
301.665
300.467
299.079
300.298
302.041
299.712
301.635
303.573
302.003
303.575
299.577
298.181
299.268
303.562
301.985
303.548
303.984
300.637
304.26
295.455
303.95
295.578
303.986
300.587
304.216
293.182
303.872
293.95
304.529
301.577
304.383
293.168
303.822
293.923
299.069
301.907
300.138
303.442
302.636
303.654
299.115
301.813
300.069
304.309
304.693
304.716
304.643
304.636
305.044
304.34
304.577
304.603
288.883
300.11
289.605
290.313
300.442
289.691
288.228
300.096
290.214
287.633
300.209
288.959
287.942
299.93
287.252
287.594
300.195
288.946
289.772
300.567
290.945
289.286
299.86
288.543
289.741
300.553
290.927
303.587
305.163
304.035
304.594
305.347
304.975
303.604
305.055
303.889
304.246
304.929
304.864
305.149
305.552
305.479
304.523
304.926
304.623
304.642
305.182
305.136
305.395
305.622
305.772
304.734
305.135
304.874
303.852
303.945
304.228
304.634
304.661
304.867
303.638
303.751
304.032
304.861
304.676
304.765
305.316
305.246
305.368
304.612
304.385
304.469
305.301
305.167
304.919
305.867
305.856
305.798
305.005
304.877
304.622
303.77
303.496
303.404
304.496
304.293
304.255
303.821
303.547
303.435
304.178
304.093
304.282
305.023
304.893
304.953
304.323
304.234
304.45
304.319
304.561
304.696
305.443
305.503
305.509
304.435
304.678
304.813
304.616
304.604
304.083
305.293
305.204
304.833
304.664
304.628
304.144
304.453
304.438
304.053
305.643
305.566
305.21
304.515
304.514
304.16
304.188
304.075
303.849
305.729
305.625
305.551
304.263
304.119
303.982
303.944
303.766
303.675
306.412
305.868
306.115
304.002
303.8
303.832
300.027
300.103
300.104
303.146
302.98
303.704
299.578
300.11
299.233
292.636
292.671
292.718
292.463
292.68
292.944
292.636
292.672
292.718
304.578
305.114
305.169
305.218
305.664
305.718
304.343
304.85
304.852
304.559
304.839
305.006
305.565
305.937
306.027
304.34
304.724
304.701
304.477
304.401
304.8
305.906
305.972
306.161
304.134
304.356
304.446
304.363
303.987
304.501
306.593
306.146
306.851
303.961
304.045
304.176
297.139
300.229
296.785
303.468
303.075
302.767
299.306
299.483
299.665
292.75
292.708
292.664
292.934
292.846
292.397
292.751
292.705
292.665
)
;

boundaryField
{
    fuel
    {
        type            fixedValue;
        value           uniform 293;
    }
    primary_air
    {
        type            fixedValue;
        value           uniform 293;
    }
    Secondary_air_RHS
    {
        type            fixedValue;
        value           uniform 293;
    }
    Secondary_air_LHS
    {
        type            fixedValue;
        value           uniform 293;
    }
    outlet
    {
        type            inletOutlet;
        inletValue      uniform 293;
        value           nonuniform List<scalar> 
18
(
293
292.934
293
293
292.846
293
293
292.397
293
293
292.464
293
293
292.68
293
293
292.944
293
)
;
    }
    stove_body
    {
        type            fixedValue;
        value           uniform 293;
    }
    frontAndBack
    {
        type            empty;
    }
}


// ************************************************************************* //
