/*--------------------------------*- C++ -*----------------------------------*\
  =========                 |
  \\      /  F ield         | OpenFOAM: The Open Source CFD Toolbox
   \\    /   O peration     | Website:  https://openfoam.org
    \\  /    A nd           | Version:  6
     \\/     M anipulation  |
\*---------------------------------------------------------------------------*/
FoamFile
{
    version     2.0;
    format      ascii;
    class       volVectorField;
    location    "0.03";
    object      U;
}
// * * * * * * * * * * * * * * * * * * * * * * * * * * * * * * * * * * * * * //

dimensions      [0 1 -1 0 0 0 0];

internalField   nonuniform List<vector> 
297
(
(32.4679 -0.025207 0.306765)
(32.5686 -0.000318955 0.312068)
(32.4657 0.025102 0.320074)
(-8.70043e-06 -0.0283341 -0.090837)
(-8.85476e-06 -0.00542933 -0.079109)
(-8.69406e-06 0.0240695 -0.0529161)
(-32.4558 -0.0243209 0.306567)
(-32.4506 -4.9616e-05 0.311457)
(-32.4544 0.0245107 0.31969)
(29.2422 -0.0254816 0.517805)
(29.1051 -0.0028214 0.516943)
(29.273 0.0226419 0.528912)
(-6.783e-06 -0.0528153 -0.186012)
(-6.78852e-06 0.00582374 -0.144476)
(-6.746e-06 0.0603056 -0.133545)
(-29.2524 -0.024736 0.51684)
(-29.2979 -0.00300058 0.514105)
(-29.2835 0.0217982 0.527473)
(23.0625 -0.0506895 0.477586)
(23.0263 0.0036246 0.508902)
(23.0625 0.0543769 0.498174)
(-6.75441e-06 -0.0629549 0.0481201)
(-6.70398e-06 0.0140564 0.109559)
(-6.69322e-06 0.0783904 0.0661997)
(-23.062 -0.0510951 0.477654)
(-23.0665 0.00404239 0.508673)
(-23.0628 0.0552821 0.497208)
(22.6726 9.66358 2.9478)
(22.3779 3.31766 7.58714)
(22.6354 -9.60102 7.49065)
(-0.000137792 5.93225 2.89152)
(-3.69073e-05 1.60372 2.28579)
(4.67429e-05 -5.93125 4.36229)
(-22.6722 9.70268 2.8966)
(-22.3771 3.37968 7.64255)
(-22.6328 -9.51915 7.64139)
(22.8299 11.4758 10.537)
(22.8167 2.06092 41.2481)
(22.8705 -12.7772 16.0374)
(0.000732284 24.7296 76.9957)
(7.77459e-05 0.467384 71.3841)
(-0.000433 -26.9217 80.211)
(-22.827 11.6169 10.9756)
(-22.8148 1.11096 41.0442)
(-22.8696 -12.5359 15.8296)
(22.2477 -1.04159 -15.7769)
(22.8301 2.71129 61.9333)
(22.2667 -0.357764 -2.72349)
(0.000560227 -21.1985 117.705)
(5.54948e-06 0.783651 -11.8193)
(-0.000414686 19.4667 121.339)
(-22.2456 -1.37715 -15.3913)
(-22.8259 3.39789 62.1154)
(-22.2652 -0.744425 -3.14371)
(22.4146 -18.034 -124.229)
(22.4383 -3.93661 -7.38238)
(22.507 20.0188 -117.923)
(-0.000638839 -3.77712 3.8916)
(-0.000149237 2.89613 -80.9)
(0.000484033 2.70338 14.0309)
(-22.4162 -18.149 -124.24)
(-22.4352 -3.93101 -7.47058)
(-22.5032 19.923 -117.96)
(22.5818 38.1632 -83.2582)
(22.613 -12.9174 -74.3454)
(22.6839 -30.7612 -77.6604)
(-0.0006493 14.5917 -44.3038)
(0.000125991 2.67266 -60.9629)
(0.000409331 -12.2909 -37.2264)
(-22.5872 38.3552 -83.1422)
(-22.6051 -12.1909 -74.3058)
(-22.6779 -30.886 -77.7324)
(22.9463 30.6355 -26.0168)
(22.9417 -16.5902 -22.3279)
(23.0017 -31.5097 -26.4573)
(-0.00107537 29.2354 -28.6916)
(8.47057e-05 13.5424 -28.9075)
(0.000497987 -15.9718 -29.3915)
(-22.9535 31.5469 -26.0147)
(-22.9327 -15.9052 -22.2965)
(-22.9931 -31.3455 -26.3726)
(16.4847 2.46398 -183.695)
(21.9752 -0.688588 84.2886)
(16.6498 -2.06662 -176.284)
(-0.00606453 -12.5988 165.871)
(-0.000547665 2.65334 -100.336)
(0.00531727 10.7892 169.349)
(-16.4597 2.19002 -183.826)
(-21.971 -0.808111 84.2808)
(-16.6731 -2.34444 -176.191)
(17.3141 -3.1907 -187.001)
(19.6428 -0.967989 83.6747)
(17.4626 4.13545 -179.807)
(-0.00474566 -6.79388 185.227)
(-0.000564354 2.70429 -103.265)
(0.00417154 4.95424 188.759)
(-17.3197 -3.40044 -187.173)
(-19.6495 -1.1579 83.6742)
(-17.4539 3.92541 -179.667)
(21.3254 -9.3413 -168.852)
(19.8416 -1.14549 81.0389)
(21.3327 10.8696 -162.059)
(-0.00323608 -1.113 181.713)
(-0.000621127 2.75488 -103.636)
(0.00282389 -0.644412 185.393)
(-21.3457 -9.47913 -168.978)
(-19.8486 -1.42047 81.0305)
(-21.311 10.7355 -161.968)
(22.6105 55.2363 -14.3972)
(22.8092 -0.0347344 -15.4112)
(22.6456 -56.3795 -14.5285)
(-0.000461638 39.4659 -16.3435)
(-0.000109524 -4.61401 -16.5691)
(5.84578e-05 -40.6886 -13.9489)
(-22.6113 55.3598 -14.5064)
(-22.7959 0.775297 -15.4811)
(-22.638 -55.7431 -14.4213)
(22.8846 34.7263 -4.50639)
(22.9933 -4.18119 -1.48119)
(22.9308 -35.5001 -4.59917)
(-0.000299362 21.3433 -8.35001)
(-0.000192796 0.501502 -7.06987)
(-8.1889e-05 -22.8431 -7.73257)
(-22.9043 34.7731 -4.60214)
(-22.9936 -3.6783 -1.40815)
(-22.914 -35.1301 -4.67126)
(23.0062 -3.84075 -4.91678)
(23.0554 -0.967015 3.34603)
(23.0434 4.38671 -5.31338)
(-0.000293469 6.61705 -5.56805)
(-0.0001738 -1.7431 -1.93184)
(-7.12492e-05 -6.81341 -4.64241)
(-23.0137 -3.5982 -5.0734)
(-23.0525 -0.856876 3.39368)
(-23.0241 4.41847 -5.05277)
(22.6205 -59.1176 -6.083)
(22.8863 -53.581 -9.42626)
(22.8055 -45.7881 -12.7936)
(-0.000135553 -45.7554 -5.55851)
(-0.000359324 -43.7481 -5.14034)
(-0.00106915 -36.6128 -5.29077)
(-22.6087 -58.423 -5.96122)
(-22.8729 -52.8921 -9.26476)
(-22.7945 -45.2245 -12.5876)
(22.8135 -43.8668 -2.74506)
(22.9904 -45.519 -10.9217)
(22.6911 -38.4297 -20.4669)
(-1.32387e-05 -37.1758 -0.232518)
(-2.77694e-05 -37.5101 1.64015)
(-0.000548348 -31.4757 3.76904)
(-22.7971 -43.3851 -2.85366)
(-22.9685 -45.0276 -10.9403)
(-22.6759 -38.0949 -20.3559)
(23.0758 -8.21125 -5.19273)
(23.0705 -23.932 -18.5003)
(22.7241 -33.1231 -29.3426)
(0.000122957 -19.7095 2.02326)
(0.000304821 -20.9533 4.29859)
(0.000357203 -22.9224 4.1996)
(-23.0533 -7.89115 -4.99214)
(-23.0473 -23.5886 -18.3224)
(-22.7038 -32.737 -28.9674)
(22.778 44.8072 -12.4991)
(22.8541 52.3152 -9.21842)
(22.5927 57.8482 -5.98044)
(0.000204373 36.2221 -5.23228)
(-0.000109254 42.9147 -5.00484)
(-0.000247449 45.601 -5.56672)
(-22.7811 44.8749 -12.5403)
(-22.8583 52.4531 -9.21321)
(-22.5947 58.0432 -5.97187)
(22.6602 37.6871 -20.0659)
(22.946 44.5515 -10.8311)
(22.78 42.8297 -2.88342)
(-5.21419e-06 31.0567 3.56077)
(-0.000269752 37.0187 1.67508)
(-0.000278732 36.8757 -0.522463)
(-22.6671 37.7752 -20.1925)
(-22.9575 44.7618 -10.8427)
(-22.7887 43.0566 -2.87949)
(22.6845 32.3552 -28.5772)
(23.0236 23.5227 -18.4118)
(23.028 7.16131 -5.13521)
(-0.000434775 22.6214 4.12501)
(-0.00042579 20.7656 4.18333)
(-0.000363994 19.542 1.92732)
(-22.6931 32.5136 -28.7519)
(-23.034 23.611 -18.3791)
(-23.0381 7.49857 -5.03684)
(22.653 13.9994 -21.9474)
(22.6465 20.8427 -15.1017)
(22.714 32.4101 -17.6983)
(0.000310427 13.3866 -11.0586)
(0.000323001 18.1535 -6.05093)
(0.000372753 27.5475 -6.44754)
(-22.6555 13.9767 -21.9781)
(-22.647 20.8731 -15.0603)
(-22.7171 32.4326 -17.7173)
(22.6916 5.53302 -33.6566)
(22.6979 18.0468 -23.9876)
(22.6155 31.322 -30.2703)
(0.000298429 9.16506 -10.1899)
(0.000349767 14.3394 -4.89701)
(0.000390661 25.1279 -3.07744)
(-22.6951 5.52648 -33.6915)
(-22.7001 18.1889 -23.8538)
(-22.6132 31.3671 -30.3121)
(22.9847 4.65141 -42.0505)
(22.7311 20.0245 -37.3972)
(22.647 18.2351 -46.5715)
(0.000314116 7.35823 -16.2079)
(0.000324544 15.1077 -11.0821)
(0.000214332 20.3416 -0.91843)
(-22.9898 4.66169 -42.0652)
(-22.7341 20.054 -37.2974)
(-22.6523 18.2647 -46.82)
(22.8867 -5.57484 -67.1377)
(22.8442 -4.32457 -62.6197)
(22.8781 -10.2092 -66.8799)
(0.00024446 -6.29493 4.84341)
(0.000250418 1.73774 17.6585)
(0.000272567 -7.90089 14.53)
(-22.8904 -5.58555 -67.1654)
(-22.8458 -4.3107 -62.3714)
(-22.8888 -10.1884 -67.155)
(22.456 2.42314 -132.016)
(22.446 -1.15114 -132.504)
(22.4385 4.61913 -131.229)
(-1.16382e-05 -2.00005 63.9821)
(-7.44285e-06 0.228056 66.6922)
(-1.8379e-05 -1.87457 60.8387)
(-22.4222 2.42767 -132.103)
(-22.4463 -1.15731 -132.474)
(-22.373 4.63164 -131.288)
(21.3635 -0.0889076 -165.51)
(21.3659 -0.0282432 -165.418)
(21.3683 -0.163506 -165.085)
(-0.000417733 -0.602207 172.287)
(-0.000412847 0.313826 170.874)
(-0.000430387 -0.518168 168.753)
(-21.3642 -0.0886423 -165.503)
(-21.367 -0.0246809 -165.438)
(-21.3687 -0.152071 -165.053)
(22.7415 -33.2322 -18.1168)
(22.671 -21.3758 -15.4734)
(22.6779 -14.3035 -22.6688)
(-0.00184855 -28.2024 -6.57025)
(-0.00250811 -18.5152 -6.19776)
(-0.00309759 -13.7269 -11.2857)
(-22.7291 -32.7168 -17.8117)
(-22.6605 -21.0425 -15.1387)
(-22.6667 -14.0969 -22.0971)
(22.6255 -31.8152 -30.693)
(22.7099 -18.6723 -24.0678)
(22.7191 -5.56246 -34.6643)
(-0.00155839 -25.5465 -3.0326)
(-0.00199973 -14.596 -5.03715)
(-0.0025288 -9.2895 -10.5071)
(-22.6259 -31.5914 -30.5883)
(-22.7141 -18.3128 -24.1167)
(-22.7063 -5.58577 -33.9509)
(22.675 -18.5439 -47.7182)
(22.7437 -20.3063 -37.5572)
(23.0276 -4.70895 -43.2006)
(-0.00111702 -20.7315 -0.92432)
(-0.00172074 -15.2932 -11.3238)
(-0.00218528 -7.49928 -16.6202)
(-22.6611 -18.4013 -47.1909)
(-22.7499 -20.1956 -37.8313)
(-23.0033 -4.70748 -42.4747)
(22.9244 10.1936 -68.502)
(22.8545 4.39393 -62.1727)
(22.9245 5.82473 -68.5362)
(-0.000647338 7.79353 14.3053)
(-0.000599928 -1.66893 17.7262)
(-0.000634068 6.42555 3.86478)
(-22.897 10.2505 -67.7149)
(-22.8623 4.35247 -63.3929)
(-22.9021 5.62108 -67.9672)
(22.2129 -4.65 -132.364)
(22.4513 1.20508 -133.329)
(22.209 -2.48555 -133.318)
(0.000161736 1.89034 60.7352)
(0.000114869 -0.14869 66.9574)
(0.000178548 2.07815 64.5501)
(-22.3756 -4.61092 -132.18)
(-22.3966 1.154 -133.439)
(-22.4265 -2.44671 -133.064)
(21.3699 0.132628 -165.911)
(21.3698 0.0425729 -166.439)
(21.3641 0.0992449 -166.315)
(0.00139653 0.49556 168.358)
(0.00137569 -0.326153 170.477)
(0.00146667 0.612755 172.093)
(-21.3682 0.155119 -165.969)
(-21.366 0.0246999 -166.31)
(-21.3637 0.0854575 -166.428)
)
;

boundaryField
{
    fuel
    {
        type            fixedValue;
        value           uniform (0 0 0.25);
    }
    primary_air
    {
        type            fixedValue;
        value           uniform (0 0 2.5);
    }
    Secondary_air_RHS
    {
        type            fixedValue;
        value           uniform (0 150 0);
    }
    Secondary_air_LHS
    {
        type            fixedValue;
        value           uniform (0 -150 0);
    }
    outlet
    {
        type            pressureInletOutletVelocity;
        value           nonuniform List<vector> 
18
(
(0 0 -165.911)
(0.00139653 0.49556 168.358)
(0 0 -165.969)
(0 0 -166.439)
(0.00137569 -0.326153 170.477)
(0 0 -166.31)
(0 0 -166.315)
(0.00146667 0.612755 172.093)
(0 0 -166.428)
(0 0 -165.51)
(-0.000417733 -0.602207 172.287)
(0 0 -165.503)
(0 0 -165.418)
(-0.000412847 0.313826 170.874)
(0 0 -165.438)
(0 0 -165.085)
(-0.000430387 -0.518168 168.753)
(0 0 -165.053)
)
;
    }
    stove_body
    {
        type            noSlip;
    }
    frontAndBack
    {
        type            empty;
    }
}


// ************************************************************************* //
